Initial configuration

17022   atoms
17022   ellipsoids

9 atom types

-74.0 74.0 xlo xhi 
-74.0 74.0 ylo yhi 
-100.0 100.0 zlo zhi 

Masses

1 1
2 0.001
3 0.001
4 0.001
5 0.001
6 0.001
7 0.001
8 0.1
9 0.1

Atoms # hybrid

1 9 41.5360 -26.0817 -0.1340 0 1 1.0 0 0 0
2 9 40.8823 -25.8222 -0.1340 0 1 1.0 0 0 0
3 9 40.2285 -25.5627 -0.1340 0 1 1.0 0 0 0
4 8 41.8104 -25.1148 -0.1340 0 1 1.0 0 0 0
5 8 40.6920 -24.6708 -0.1340 0 1 1.0 0 0 0
6 8 42.0849 -24.1478 -0.1340 0 1 1.0 0 0 0
7 8 41.1554 -23.7789 -0.1340 0 1 1.0 0 0 0
8 2 42.0008 -26.2662 -0.1340 0 1 1.0 0 0 0
9 3 39.7638 -25.3783 -0.1340 0 1 1.0 0 0 0
10 4 42.2752 -25.2992 -0.1340 0 1 1.0 0 0 0
11 5 40.2272 -24.4863 -0.1340 0 1 1.0 0 0 0
12 6 42.5496 -24.3323 -0.1340 0 1 1.0 0 0 0
13 7 40.6907 -23.5944 -0.1340 0 1 1.0 0 0 0
14 9 10.5760 -40.1823 -0.1340 1 1 1.0 0 0 0
15 9 11.2590 -40.3504 -0.1340 1 1 1.0 0 0 0
16 9 11.9420 -40.5185 -0.1340 1 1 1.0 0 0 0
17 8 10.4357 -41.1776 -0.1340 1 1 1.0 0 0 0
18 8 11.6042 -41.4652 -0.1340 1 1 1.0 0 0 0
19 8 10.2954 -42.1729 -0.1340 1 1 1.0 0 0 0
20 8 11.2664 -42.4119 -0.1340 1 1 1.0 0 0 0
21 2 10.0905 -40.0628 -0.1340 1 1 1.0 0 0 0
22 3 12.4275 -40.6380 -0.1340 1 1 1.0 0 0 0
23 4 9.9502 -41.0581 -0.1340 1 1 1.0 0 0 0
24 5 12.0897 -41.5847 -0.1340 1 1 1.0 0 0 0
25 6 9.8099 -42.0534 -0.1340 1 1 1.0 0 0 0
26 7 11.7519 -42.5314 -0.1340 1 1 1.0 0 0 0
27 9 33.0267 -47.3765 -0.1340 2 1 1.0 0 0 0
28 9 32.5129 -46.8961 -0.1340 2 1 1.0 0 0 0
29 9 31.9992 -46.4157 -0.1340 2 1 1.0 0 0 0
30 8 33.6354 -46.5767 -0.1340 2 1 1.0 0 0 0
31 8 32.7565 -45.7547 -0.1340 2 1 1.0 0 0 0
32 8 34.2442 -45.7768 -0.1340 2 1 1.0 0 0 0
33 8 33.5137 -45.0938 -0.1340 2 1 1.0 0 0 0
34 2 33.3919 -47.7180 -0.1340 2 1 1.0 0 0 0
35 3 31.6340 -46.0742 -0.1340 2 1 1.0 0 0 0
36 4 34.0006 -46.9182 -0.1340 2 1 1.0 0 0 0
37 5 32.3913 -45.4132 -0.1340 2 1 1.0 0 0 0
38 6 34.6094 -46.1183 -0.1340 2 1 1.0 0 0 0
39 7 33.1485 -44.7523 -0.1340 2 1 1.0 0 0 0
40 9 -61.2756 -63.8468 -0.1340 3 1 1.0 0 0 0
41 9 -61.9728 -63.9398 -0.1340 3 1 1.0 0 0 0
42 9 -62.6700 -64.0329 -0.1340 3 1 1.0 0 0 0
43 8 -61.5087 -62.8690 -0.1340 3 1 1.0 0 0 0
44 8 -62.7015 -63.0282 -0.1340 3 1 1.0 0 0 0
45 8 -61.7418 -61.8913 -0.1340 3 1 1.0 0 0 0
46 8 -62.7330 -62.0235 -0.1340 3 1 1.0 0 0 0
47 2 -60.7800 -63.7806 -0.1340 3 1 1.0 0 0 0
48 3 -63.1656 -64.0990 -0.1340 3 1 1.0 0 0 0
49 4 -61.0131 -62.8029 -0.1340 3 1 1.0 0 0 0
50 5 -63.1971 -63.0943 -0.1340 3 1 1.0 0 0 0
51 6 -61.2462 -61.8251 -0.1340 3 1 1.0 0 0 0
52 7 -63.2286 -62.0897 -0.1340 3 1 1.0 0 0 0
53 9 -17.0084 -67.0680 -0.1340 4 1 1.0 0 0 0
54 9 -17.3944 -66.4800 -0.1340 4 1 1.0 0 0 0
55 9 -17.7805 -65.8920 -0.1340 4 1 1.0 0 0 0
56 8 -16.2283 -66.4342 -0.1340 4 1 1.0 0 0 0
57 8 -16.8887 -65.4282 -0.1340 4 1 1.0 0 0 0
58 8 -15.4482 -65.8003 -0.1340 4 1 1.0 0 0 0
59 8 -15.9970 -64.9644 -0.1340 4 1 1.0 0 0 0
60 2 -16.7340 -67.4860 -0.1340 4 1 1.0 0 0 0
61 3 -18.0549 -65.4741 -0.1340 4 1 1.0 0 0 0
62 4 -15.9539 -66.8521 -0.1340 4 1 1.0 0 0 0
63 5 -17.1632 -65.0102 -0.1340 4 1 1.0 0 0 0
64 6 -15.1737 -66.2183 -0.1340 4 1 1.0 0 0 0
65 7 -16.2714 -64.5464 -0.1340 4 1 1.0 0 0 0
66 9 -8.7792 -10.0041 -0.1340 5 1 1.0 0 0 0
67 9 -9.3658 -9.6160 -0.1340 5 1 1.0 0 0 0
68 9 -9.9525 -9.2279 -0.1340 5 1 1.0 0 0 0
69 8 -8.3123 -9.1139 -0.1340 5 1 1.0 0 0 0
70 8 -9.3159 -8.4500 -0.1340 5 1 1.0 0 0 0
71 8 -7.8453 -8.2238 -0.1340 5 1 1.0 0 0 0
72 8 -8.6793 -7.6721 -0.1340 5 1 1.0 0 0 0
73 2 -8.3622 -10.2799 -0.1340 5 1 1.0 0 0 0
74 3 -10.3695 -8.9520 -0.1340 5 1 1.0 0 0 0
75 4 -7.8953 -9.3898 -0.1340 5 1 1.0 0 0 0
76 5 -9.7329 -8.1741 -0.1340 5 1 1.0 0 0 0
77 6 -7.4283 -8.4997 -0.1340 5 1 1.0 0 0 0
78 7 -9.0963 -7.3962 -0.1340 5 1 1.0 0 0 0
79 9 41.4233 49.3046 -0.1340 6 1 1.0 0 0 0
80 9 42.0561 49.6117 -0.1340 6 1 1.0 0 0 0
81 9 42.6889 49.9187 -0.1340 6 1 1.0 0 0 0
82 8 41.9513 48.4493 -0.1340 6 1 1.0 0 0 0
83 8 43.0339 48.9746 -0.1340 6 1 1.0 0 0 0
84 8 42.4792 47.5940 -0.1340 6 1 1.0 0 0 0
85 8 43.3789 48.0305 -0.1340 6 1 1.0 0 0 0
86 2 40.9734 49.0864 -0.1340 6 1 1.0 0 0 0
87 3 43.1388 50.1369 -0.1340 6 1 1.0 0 0 0
88 4 41.5014 48.2311 -0.1340 6 1 1.0 0 0 0
89 5 43.4838 49.1928 -0.1340 6 1 1.0 0 0 0
90 6 42.0294 47.3758 -0.1340 6 1 1.0 0 0 0
91 7 43.8288 48.2488 -0.1340 6 1 1.0 0 0 0
92 9 -39.9806 47.7996 -0.1340 7 1 1.0 0 0 0
93 9 -40.6397 48.0453 -0.1340 7 1 1.0 0 0 0
94 9 -41.2987 48.2910 -0.1340 7 1 1.0 0 0 0
95 8 -39.7266 48.7721 -0.1340 7 1 1.0 0 0 0
96 8 -40.8541 49.1925 -0.1340 7 1 1.0 0 0 0
97 8 -39.4725 49.7446 -0.1340 7 1 1.0 0 0 0
98 8 -40.4095 50.0939 -0.1340 7 1 1.0 0 0 0
99 2 -39.5121 47.6249 -0.1340 7 1 1.0 0 0 0
100 3 -41.7672 48.4656 -0.1340 7 1 1.0 0 0 0
101 4 -39.2581 48.5974 -0.1340 7 1 1.0 0 0 0
102 5 -41.3226 49.3671 -0.1340 7 1 1.0 0 0 0
103 6 -39.0040 49.5700 -0.1340 7 1 1.0 0 0 0
104 7 -40.8780 50.2686 -0.1340 7 1 1.0 0 0 0
105 9 -64.7305 5.4195 -0.1340 8 1 1.0 0 0 0
106 9 -64.0570 5.6222 -0.1340 8 1 1.0 0 0 0
107 9 -63.3834 5.8250 -0.1340 8 1 1.0 0 0 0
108 8 -64.3449 4.4913 -0.1340 8 1 1.0 0 0 0
109 8 -63.1926 4.8381 -0.1340 8 1 1.0 0 0 0
110 8 -63.9593 3.5630 -0.1340 8 1 1.0 0 0 0
111 8 -63.0018 3.8512 -0.1340 8 1 1.0 0 0 0
112 2 -65.2093 5.2754 -0.1340 8 1 1.0 0 0 0
113 3 -62.9046 5.9691 -0.1340 8 1 1.0 0 0 0
114 4 -64.8237 4.3472 -0.1340 8 1 1.0 0 0 0
115 5 -62.7138 4.9822 -0.1340 8 1 1.0 0 0 0
116 6 -64.4381 3.4189 -0.1340 8 1 1.0 0 0 0
117 7 -62.5230 3.9953 -0.1340 8 1 1.0 0 0 0
118 9 -17.2954 64.8976 -0.1340 9 1 1.0 0 0 0
119 9 -16.6638 64.5879 -0.1340 9 1 1.0 0 0 0
120 9 -16.0322 64.2783 -0.1340 9 1 1.0 0 0 0
121 8 -17.6443 63.9549 -0.1340 9 1 1.0 0 0 0
122 8 -16.5637 63.4252 -0.1340 9 1 1.0 0 0 0
123 8 -17.9932 63.0122 -0.1340 9 1 1.0 0 0 0
124 8 -17.0953 62.5720 -0.1340 9 1 1.0 0 0 0
125 2 -17.7443 65.1177 -0.1340 9 1 1.0 0 0 0
126 3 -15.5833 64.0582 -0.1340 9 1 1.0 0 0 0
127 4 -18.0932 64.1750 -0.1340 9 1 1.0 0 0 0
128 5 -16.1148 63.2051 -0.1340 9 1 1.0 0 0 0
129 6 -18.4421 63.2324 -0.1340 9 1 1.0 0 0 0
130 7 -16.6463 62.3519 -0.1340 9 1 1.0 0 0 0
131 9 -42.5236 -22.8107 -0.1340 10 1 1.0 0 0 0
132 9 -42.3665 -22.1250 -0.1340 10 1 1.0 0 0 0
133 9 -42.2094 -21.4394 -0.1340 10 1 1.0 0 0 0
134 8 -41.5261 -22.9349 -0.1340 10 1 1.0 0 0 0
135 8 -41.2574 -21.7619 -0.1340 10 1 1.0 0 0 0
136 8 -40.5287 -23.0591 -0.1340 10 1 1.0 0 0 0
137 8 -40.3054 -22.0843 -0.1340 10 1 1.0 0 0 0
138 2 -42.6353 -23.2980 -0.1340 10 1 1.0 0 0 0
139 3 -42.0978 -20.9521 -0.1340 10 1 1.0 0 0 0
140 4 -41.6378 -23.4222 -0.1340 10 1 1.0 0 0 0
141 5 -41.1457 -21.2745 -0.1340 10 1 1.0 0 0 0
142 6 -40.6404 -23.5465 -0.1340 10 1 1.0 0 0 0
143 7 -40.1937 -21.5970 -0.1340 10 1 1.0 0 0 0
144 9 1.5211 19.2714 -0.1340 11 1 1.0 0 0 0
145 9 2.0761 19.7036 -0.1340 11 1 1.0 0 0 0
146 9 2.6311 20.1357 -0.1340 11 1 1.0 0 0 0
147 8 2.2157 18.5449 -0.1340 11 1 1.0 0 0 0
148 8 3.1652 19.2842 -0.1340 11 1 1.0 0 0 0
149 8 2.9103 17.8183 -0.1340 11 1 1.0 0 0 0
150 8 3.6994 18.4327 -0.1340 11 1 1.0 0 0 0
151 2 1.1266 18.9642 -0.1340 11 1 1.0 0 0 0
152 3 3.0256 20.4429 -0.1340 11 1 1.0 0 0 0
153 4 1.8212 18.2377 -0.1340 11 1 1.0 0 0 0
154 5 3.5597 19.5914 -0.1340 11 1 1.0 0 0 0
155 6 2.5158 17.5111 -0.1340 11 1 1.0 0 0 0
156 7 4.0939 18.7399 -0.1340 11 1 1.0 0 0 0
157 9 -51.2275 8.5098 -0.1340 12 1 1.0 0 0 0
158 9 -50.7357 8.0069 -0.1340 12 1 1.0 0 0 0
159 9 -50.2440 7.5040 -0.1340 12 1 1.0 0 0 0
160 8 -51.8714 7.7380 -0.1340 12 1 1.0 0 0 0
161 8 -51.0301 6.8776 -0.1340 12 1 1.0 0 0 0
162 8 -52.5154 6.9662 -0.1340 12 1 1.0 0 0 0
163 8 -51.8163 6.2512 -0.1340 12 1 1.0 0 0 0
164 2 -51.5770 8.8674 -0.1340 12 1 1.0 0 0 0
165 3 -49.8945 7.1464 -0.1340 12 1 1.0 0 0 0
166 4 -52.2210 8.0955 -0.1340 12 1 1.0 0 0 0
167 5 -50.6806 6.5201 -0.1340 12 1 1.0 0 0 0
168 6 -52.8649 7.3237 -0.1340 12 1 1.0 0 0 0
169 7 -51.4667 5.8937 -0.1340 12 1 1.0 0 0 0
170 9 -14.5732 6.9983 -0.1340 13 1 1.0 0 0 0
171 9 -14.6133 6.2961 -0.1340 13 1 1.0 0 0 0
172 9 -14.6534 5.5939 -0.1340 13 1 1.0 0 0 0
173 8 -15.5774 6.9538 -0.1340 13 1 1.0 0 0 0
174 8 -15.6460 5.7524 -0.1340 13 1 1.0 0 0 0
175 8 -16.5815 6.9093 -0.1340 13 1 1.0 0 0 0
176 8 -16.6385 5.9109 -0.1340 13 1 1.0 0 0 0
177 2 -14.5447 7.4975 -0.1340 13 1 1.0 0 0 0
178 3 -14.6819 5.0947 -0.1340 13 1 1.0 0 0 0
179 4 -15.5489 7.4530 -0.1340 13 1 1.0 0 0 0
180 5 -15.6745 5.2532 -0.1340 13 1 1.0 0 0 0
181 6 -16.5530 7.4085 -0.1340 13 1 1.0 0 0 0
182 7 -16.6670 5.4117 -0.1340 13 1 1.0 0 0 0
183 9 -67.7329 -23.6332 -0.1340 14 1 1.0 0 0 0
184 9 -67.6708 -24.3338 -0.1340 14 1 1.0 0 0 0
185 9 -67.6086 -25.0344 -0.1340 14 1 1.0 0 0 0
186 8 -68.7200 -23.8228 -0.1340 14 1 1.0 0 0 0
187 8 -68.6137 -25.0215 -0.1340 14 1 1.0 0 0 0
188 8 -69.7071 -24.0125 -0.1340 14 1 1.0 0 0 0
189 8 -69.6188 -25.0086 -0.1340 14 1 1.0 0 0 0
190 2 -67.7771 -23.1351 -0.1340 14 1 1.0 0 0 0
191 3 -67.5644 -25.5324 -0.1340 14 1 1.0 0 0 0
192 4 -68.7642 -23.3248 -0.1340 14 1 1.0 0 0 0
193 5 -68.5695 -25.5195 -0.1340 14 1 1.0 0 0 0
194 6 -69.7513 -23.5144 -0.1340 14 1 1.0 0 0 0
195 7 -69.5746 -25.5066 -0.1340 14 1 1.0 0 0 0
196 9 -29.8327 6.3133 -0.1340 15 1 1.0 0 0 0
197 9 -30.5318 6.3904 -0.1340 15 1 1.0 0 0 0
198 9 -31.2310 6.4674 -0.1340 15 1 1.0 0 0 0
199 8 -29.8242 7.3184 -0.1340 15 1 1.0 0 0 0
200 8 -31.0204 7.4502 -0.1340 15 1 1.0 0 0 0
201 8 -29.8158 8.3236 -0.1340 15 1 1.0 0 0 0
202 8 -30.8097 8.4331 -0.1340 15 1 1.0 0 0 0
203 2 -29.3357 6.2585 -0.1340 15 1 1.0 0 0 0
204 3 -31.7280 6.5222 -0.1340 15 1 1.0 0 0 0
205 4 -29.3272 7.2637 -0.1340 15 1 1.0 0 0 0
206 5 -31.5173 7.5050 -0.1340 15 1 1.0 0 0 0
207 6 -29.3188 8.2688 -0.1340 15 1 1.0 0 0 0
208 7 -31.3067 8.4879 -0.1340 15 1 1.0 0 0 0
209 9 -57.1864 17.1672 -0.1340 16 1 1.0 0 0 0
210 9 -57.7312 17.6121 -0.1340 16 1 1.0 0 0 0
211 9 -58.2760 18.0570 -0.1340 16 1 1.0 0 0 0
212 8 -56.6327 18.0061 -0.1340 16 1 1.0 0 0 0
213 8 -57.5648 18.7672 -0.1340 16 1 1.0 0 0 0
214 8 -56.0789 18.8450 -0.1340 16 1 1.0 0 0 0
215 8 -56.8535 19.4775 -0.1340 16 1 1.0 0 0 0
216 2 -56.7991 16.8510 -0.1340 16 1 1.0 0 0 0
217 3 -58.6633 18.3732 -0.1340 16 1 1.0 0 0 0
218 4 -56.2454 17.6899 -0.1340 16 1 1.0 0 0 0
219 5 -57.9521 19.0835 -0.1340 16 1 1.0 0 0 0
220 6 -55.6917 18.5288 -0.1340 16 1 1.0 0 0 0
221 7 -57.2408 19.7937 -0.1340 16 1 1.0 0 0 0
222 9 36.0255 39.2291 -0.1340 17 1 1.0 0 0 0
223 9 36.7127 39.0790 -0.1340 17 1 1.0 0 0 0
224 9 37.3998 38.9288 -0.1340 17 1 1.0 0 0 0
225 8 35.9114 38.2305 -0.1340 17 1 1.0 0 0 0
226 8 37.0870 37.9736 -0.1340 17 1 1.0 0 0 0
227 8 35.7972 37.2318 -0.1340 17 1 1.0 0 0 0
228 8 36.7741 37.0183 -0.1340 17 1 1.0 0 0 0
229 2 35.5371 39.3359 -0.1340 17 1 1.0 0 0 0
230 3 37.8883 38.8220 -0.1340 17 1 1.0 0 0 0
231 4 35.4229 38.3372 -0.1340 17 1 1.0 0 0 0
232 5 37.5755 37.8668 -0.1340 17 1 1.0 0 0 0
233 6 35.3087 37.3386 -0.1340 17 1 1.0 0 0 0
234 7 37.2626 36.9116 -0.1340 17 1 1.0 0 0 0
235 9 -66.4289 -19.0931 -0.1340 18 1 1.0 0 0 0
236 9 -66.6352 -19.7656 -0.1340 18 1 1.0 0 0 0
237 9 -66.8415 -20.4380 -0.1340 18 1 1.0 0 0 0
238 8 -67.4147 -18.8970 -0.1340 18 1 1.0 0 0 0
239 8 -67.7677 -20.0474 -0.1340 18 1 1.0 0 0 0
240 8 -68.4005 -18.7009 -0.1340 18 1 1.0 0 0 0
241 8 -68.6939 -19.6569 -0.1340 18 1 1.0 0 0 0
242 2 -66.2822 -18.6151 -0.1340 18 1 1.0 0 0 0
243 3 -66.9882 -20.9160 -0.1340 18 1 1.0 0 0 0
244 4 -67.2680 -18.4190 -0.1340 18 1 1.0 0 0 0
245 5 -67.9144 -20.5254 -0.1340 18 1 1.0 0 0 0
246 6 -68.2539 -18.2229 -0.1340 18 1 1.0 0 0 0
247 7 -68.8405 -20.1349 -0.1340 18 1 1.0 0 0 0
248 9 -16.1267 -16.7695 -0.1340 19 1 1.0 0 0 0
249 9 -16.8010 -16.5695 -0.1340 19 1 1.0 0 0 0
250 9 -17.4754 -16.3695 -0.1340 19 1 1.0 0 0 0
251 8 -15.9398 -15.7818 -0.1340 19 1 1.0 0 0 0
252 8 -17.0936 -15.4397 -0.1340 19 1 1.0 0 0 0
253 8 -15.7530 -14.7942 -0.1340 19 1 1.0 0 0 0
254 8 -16.7117 -14.5099 -0.1340 19 1 1.0 0 0 0
255 2 -15.6473 -16.9116 -0.1340 19 1 1.0 0 0 0
256 3 -17.9547 -16.2274 -0.1340 19 1 1.0 0 0 0
257 4 -15.4605 -15.9240 -0.1340 19 1 1.0 0 0 0
258 5 -17.5729 -15.2975 -0.1340 19 1 1.0 0 0 0
259 6 -15.2736 -14.9364 -0.1340 19 1 1.0 0 0 0
260 7 -17.1911 -14.3677 -0.1340 19 1 1.0 0 0 0
261 9 22.8003 63.9391 -0.1340 20 1 1.0 0 0 0
262 9 22.8503 64.6407 -0.1340 20 1 1.0 0 0 0
263 9 22.9004 65.3423 -0.1340 20 1 1.0 0 0 0
264 8 23.8050 63.9694 -0.1340 20 1 1.0 0 0 0
265 8 23.8907 65.1697 -0.1340 20 1 1.0 0 0 0
266 8 24.8097 63.9996 -0.1340 20 1 1.0 0 0 0
267 8 24.8809 64.9970 -0.1340 20 1 1.0 0 0 0
268 2 22.7646 63.4404 -0.1340 20 1 1.0 0 0 0
269 3 22.9360 65.8411 -0.1340 20 1 1.0 0 0 0
270 4 23.7693 63.4706 -0.1340 20 1 1.0 0 0 0
271 5 23.9263 65.6684 -0.1340 20 1 1.0 0 0 0
272 6 24.7741 63.5008 -0.1340 20 1 1.0 0 0 0
273 7 24.9165 65.4958 -0.1340 20 1 1.0 0 0 0
274 9 -6.9596 -28.5117 -0.1340 21 1 1.0 0 0 0
275 9 -7.6524 -28.6333 -0.1340 21 1 1.0 0 0 0
276 9 -8.3451 -28.7550 -0.1340 21 1 1.0 0 0 0
277 8 -7.2327 -27.5443 -0.1340 21 1 1.0 0 0 0
278 8 -8.4180 -27.7525 -0.1340 21 1 1.0 0 0 0
279 8 -7.5059 -26.5770 -0.1340 21 1 1.0 0 0 0
280 8 -8.4908 -26.7500 -0.1340 21 1 1.0 0 0 0
281 2 -6.4671 -28.4252 -0.1340 21 1 1.0 0 0 0
282 3 -8.8376 -28.8415 -0.1340 21 1 1.0 0 0 0
283 4 -6.7403 -27.4578 -0.1340 21 1 1.0 0 0 0
284 5 -8.9104 -27.8390 -0.1340 21 1 1.0 0 0 0
285 6 -7.0134 -26.4905 -0.1340 21 1 1.0 0 0 0
286 7 -8.9833 -26.8365 -0.1340 21 1 1.0 0 0 0
287 9 2.7113 28.7699 -0.1340 22 1 1.0 0 0 0
288 9 2.6889 29.4729 -0.1340 22 1 1.0 0 0 0
289 9 2.6665 30.1759 -0.1340 22 1 1.0 0 0 0
290 8 3.7075 28.9033 -0.1340 22 1 1.0 0 0 0
291 8 3.6692 30.1061 -0.1340 22 1 1.0 0 0 0
292 8 4.7038 29.0368 -0.1340 22 1 1.0 0 0 0
293 8 4.6720 30.0363 -0.1340 22 1 1.0 0 0 0
294 2 2.7272 28.2701 -0.1340 22 1 1.0 0 0 0
295 3 2.6506 30.6756 -0.1340 22 1 1.0 0 0 0
296 4 3.7234 28.4036 -0.1340 22 1 1.0 0 0 0
297 5 3.6533 30.6058 -0.1340 22 1 1.0 0 0 0
298 6 4.7197 28.5370 -0.1340 22 1 1.0 0 0 0
299 7 4.6561 30.5360 -0.1340 22 1 1.0 0 0 0
300 9 30.9978 61.5273 -0.1340 23 1 1.0 0 0 0
301 9 30.7373 62.1806 -0.1340 23 1 1.0 0 0 0
302 9 30.4768 62.8340 -0.1340 23 1 1.0 0 0 0
303 8 31.8890 61.9921 -0.1340 23 1 1.0 0 0 0
304 8 31.4434 63.1099 -0.1340 23 1 1.0 0 0 0
305 8 32.7803 62.4569 -0.1340 23 1 1.0 0 0 0
306 8 32.4099 63.3858 -0.1340 23 1 1.0 0 0 0
307 2 31.1830 61.0628 -0.1340 23 1 1.0 0 0 0
308 3 30.2916 63.2984 -0.1340 23 1 1.0 0 0 0
309 4 32.0742 61.5276 -0.1340 23 1 1.0 0 0 0
310 5 31.2582 63.5743 -0.1340 23 1 1.0 0 0 0
311 6 32.9654 61.9924 -0.1340 23 1 1.0 0 0 0
312 7 32.2247 63.8502 -0.1340 23 1 1.0 0 0 0
313 9 -31.7753 32.3335 -0.1340 24 1 1.0 0 0 0
314 9 -31.0904 32.1733 -0.1340 24 1 1.0 0 0 0
315 9 -30.4055 32.0131 -0.1340 24 1 1.0 0 0 0
316 8 -31.9040 31.3366 -0.1340 24 1 1.0 0 0 0
317 8 -30.7322 31.0625 -0.1340 24 1 1.0 0 0 0
318 8 -32.0327 30.3397 -0.1340 24 1 1.0 0 0 0
319 8 -31.0589 30.1120 -0.1340 24 1 1.0 0 0 0
320 2 -32.2621 32.4473 -0.1340 24 1 1.0 0 0 0
321 3 -29.9186 31.8993 -0.1340 24 1 1.0 0 0 0
322 4 -32.3908 31.4504 -0.1340 24 1 1.0 0 0 0
323 5 -30.2453 30.9487 -0.1340 24 1 1.0 0 0 0
324 6 -32.5195 30.4535 -0.1340 24 1 1.0 0 0 0
325 7 -30.5721 29.9981 -0.1340 24 1 1.0 0 0 0
326 9 68.0868 -52.1949 -0.1340 25 1 1.0 0 0 0
327 9 67.8244 -52.8475 -0.1340 25 1 1.0 0 0 0
328 9 67.5620 -53.5001 -0.1340 25 1 1.0 0 0 0
329 8 67.1210 -51.9162 -0.1340 25 1 1.0 0 0 0
330 8 66.6721 -53.0327 -0.1340 25 1 1.0 0 0 0
331 8 66.1553 -51.6374 -0.1340 25 1 1.0 0 0 0
332 8 65.7822 -52.5652 -0.1340 25 1 1.0 0 0 0
333 2 68.2733 -51.7310 -0.1340 25 1 1.0 0 0 0
334 3 67.3754 -53.9640 -0.1340 25 1 1.0 0 0 0
335 4 67.3076 -51.4523 -0.1340 25 1 1.0 0 0 0
336 5 66.4856 -53.4966 -0.1340 25 1 1.0 0 0 0
337 6 66.3418 -51.1735 -0.1340 25 1 1.0 0 0 0
338 7 65.5957 -53.0291 -0.1340 25 1 1.0 0 0 0
339 9 43.5137 65.7100 -0.1340 26 1 1.0 0 0 0
340 9 42.9535 66.1353 -0.1340 26 1 1.0 0 0 0
341 9 42.3933 66.5607 -0.1340 26 1 1.0 0 0 0
342 8 44.0375 66.5679 -0.1340 26 1 1.0 0 0 0
343 8 43.0790 67.2956 -0.1340 26 1 1.0 0 0 0
344 8 44.5612 67.4259 -0.1340 26 1 1.0 0 0 0
345 8 43.7647 68.0306 -0.1340 26 1 1.0 0 0 0
346 2 43.9120 65.4076 -0.1340 26 1 1.0 0 0 0
347 3 41.9951 66.8630 -0.1340 26 1 1.0 0 0 0
348 4 44.4357 66.2656 -0.1340 26 1 1.0 0 0 0
349 5 42.6808 67.5980 -0.1340 26 1 1.0 0 0 0
350 6 44.9594 67.1235 -0.1340 26 1 1.0 0 0 0
351 7 43.3665 68.3329 -0.1340 26 1 1.0 0 0 0
352 9 15.7666 -54.8199 -0.1340 27 1 1.0 0 0 0
353 9 15.1535 -55.1646 -0.1340 27 1 1.0 0 0 0
354 9 14.5404 -55.5093 -0.1340 27 1 1.0 0 0 0
355 8 15.1879 -53.9980 -0.1340 27 1 1.0 0 0 0
356 8 14.1389 -54.5878 -0.1340 27 1 1.0 0 0 0
357 8 14.6091 -53.1762 -0.1340 27 1 1.0 0 0 0
358 8 13.7375 -53.6663 -0.1340 27 1 1.0 0 0 0
359 2 16.2025 -54.5748 -0.1340 27 1 1.0 0 0 0
360 3 14.1046 -55.7544 -0.1340 27 1 1.0 0 0 0
361 4 15.6237 -53.7530 -0.1340 27 1 1.0 0 0 0
362 5 13.7031 -54.8329 -0.1340 27 1 1.0 0 0 0
363 6 15.0450 -52.9311 -0.1340 27 1 1.0 0 0 0
364 7 13.3016 -53.9113 -0.1340 27 1 1.0 0 0 0
365 9 -69.1218 38.3334 -0.1340 28 1 1.0 0 0 0
366 9 -68.6930 38.8910 -0.1340 28 1 1.0 0 0 0
367 9 -68.2643 39.4486 -0.1340 28 1 1.0 0 0 0
368 8 -68.2670 37.8045 -0.1340 28 1 1.0 0 0 0
369 8 -67.5335 38.7584 -0.1340 28 1 1.0 0 0 0
370 8 -67.4123 37.2755 -0.1340 28 1 1.0 0 0 0
371 8 -66.8028 38.0683 -0.1340 28 1 1.0 0 0 0
372 2 -69.4266 37.9370 -0.1340 28 1 1.0 0 0 0
373 3 -67.9595 39.8450 -0.1340 28 1 1.0 0 0 0
374 4 -68.5718 37.4081 -0.1340 28 1 1.0 0 0 0
375 5 -67.2288 39.1548 -0.1340 28 1 1.0 0 0 0
376 6 -67.7171 36.8792 -0.1340 28 1 1.0 0 0 0
377 7 -66.4980 38.4647 -0.1340 28 1 1.0 0 0 0
378 9 -10.8173 32.1491 -0.1340 29 1 1.0 0 0 0
379 9 -11.4520 31.8459 -0.1340 29 1 1.0 0 0 0
380 9 -12.0867 31.5426 -0.1340 29 1 1.0 0 0 0
381 8 -11.3402 33.0076 -0.1340 29 1 1.0 0 0 0
382 8 -12.4260 32.4888 -0.1340 29 1 1.0 0 0 0
383 8 -11.8631 33.8660 -0.1340 29 1 1.0 0 0 0
384 8 -12.7654 33.4349 -0.1340 29 1 1.0 0 0 0
385 2 -10.3662 32.3647 -0.1340 29 1 1.0 0 0 0
386 3 -12.5378 31.3271 -0.1340 29 1 1.0 0 0 0
387 4 -10.8891 33.2231 -0.1340 29 1 1.0 0 0 0
388 5 -12.8772 32.2732 -0.1340 29 1 1.0 0 0 0
389 6 -11.4120 34.0816 -0.1340 29 1 1.0 0 0 0
390 7 -13.2165 33.2193 -0.1340 29 1 1.0 0 0 0
391 9 49.4148 59.5211 -0.1340 30 1 1.0 0 0 0
392 9 49.4841 60.2211 -0.1340 30 1 1.0 0 0 0
393 9 49.5533 60.9210 -0.1340 30 1 1.0 0 0 0
394 8 50.4200 59.5239 -0.1340 30 1 1.0 0 0 0
395 8 50.5384 60.7214 -0.1340 30 1 1.0 0 0 0
396 8 51.4252 59.5267 -0.1340 30 1 1.0 0 0 0
397 8 51.5235 60.5218 -0.1340 30 1 1.0 0 0 0
398 2 49.3657 59.0235 -0.1340 30 1 1.0 0 0 0
399 3 49.6025 61.4186 -0.1340 30 1 1.0 0 0 0
400 4 50.3708 59.0263 -0.1340 30 1 1.0 0 0 0
401 5 50.5876 61.2190 -0.1340 30 1 1.0 0 0 0
402 6 51.3760 59.0291 -0.1340 30 1 1.0 0 0 0
403 7 51.5727 61.0194 -0.1340 30 1 1.0 0 0 0
404 9 -6.4503 -55.2862 -0.1340 31 1 1.0 0 0 0
405 9 -5.8824 -55.7013 -0.1340 31 1 1.0 0 0 0
406 9 -5.3146 -56.1164 -0.1340 31 1 1.0 0 0 0
407 8 -6.9583 -56.1535 -0.1340 31 1 1.0 0 0 0
408 8 -5.9868 -56.8636 -0.1340 31 1 1.0 0 0 0
409 8 -7.4664 -57.0208 -0.1340 31 1 1.0 0 0 0
410 8 -6.6591 -57.6109 -0.1340 31 1 1.0 0 0 0
411 2 -6.8539 -54.9911 -0.1340 31 1 1.0 0 0 0
412 3 -4.9110 -56.4114 -0.1340 31 1 1.0 0 0 0
413 4 -7.3620 -55.8584 -0.1340 31 1 1.0 0 0 0
414 5 -5.5832 -57.1587 -0.1340 31 1 1.0 0 0 0
415 6 -7.8700 -56.7257 -0.1340 31 1 1.0 0 0 0
416 7 -6.2554 -57.9060 -0.1340 31 1 1.0 0 0 0
417 9 24.5610 60.1024 -0.1340 32 1 1.0 0 0 0
418 9 25.0846 59.6327 -0.1340 32 1 1.0 0 0 0
419 9 25.6081 59.1630 -0.1340 32 1 1.0 0 0 0
420 8 23.9689 59.2902 -0.1340 32 1 1.0 0 0 0
421 8 24.8647 58.4865 -0.1340 32 1 1.0 0 0 0
422 8 23.3768 58.4779 -0.1340 32 1 1.0 0 0 0
423 8 24.1212 57.8101 -0.1340 32 1 1.0 0 0 0
424 2 24.1889 60.4363 -0.1340 32 1 1.0 0 0 0
425 3 25.9803 58.8291 -0.1340 32 1 1.0 0 0 0
426 4 23.5968 59.6241 -0.1340 32 1 1.0 0 0 0
427 5 25.2368 58.1526 -0.1340 32 1 1.0 0 0 0
428 6 23.0047 58.8118 -0.1340 32 1 1.0 0 0 0
429 7 24.4933 57.4762 -0.1340 32 1 1.0 0 0 0
430 9 -5.6147 19.3543 -0.1340 33 1 1.0 0 0 0
431 9 -5.4587 20.0402 -0.1340 33 1 1.0 0 0 0
432 9 -5.3027 20.7260 -0.1340 33 1 1.0 0 0 0
433 8 -4.6170 19.2317 -0.1340 33 1 1.0 0 0 0
434 8 -4.3501 20.4051 -0.1340 33 1 1.0 0 0 0
435 8 -3.6194 19.1091 -0.1340 33 1 1.0 0 0 0
436 8 -3.3976 20.0841 -0.1340 33 1 1.0 0 0 0
437 2 -5.7256 18.8668 -0.1340 33 1 1.0 0 0 0
438 3 -5.1918 21.2136 -0.1340 33 1 1.0 0 0 0
439 4 -4.7279 18.7441 -0.1340 33 1 1.0 0 0 0
440 5 -4.2392 20.8926 -0.1340 33 1 1.0 0 0 0
441 6 -3.7303 18.6215 -0.1340 33 1 1.0 0 0 0
442 7 -3.2867 20.5717 -0.1340 33 1 1.0 0 0 0
443 9 -9.4609 -40.0760 -0.1340 34 1 1.0 0 0 0
444 9 -9.4991 -40.7783 -0.1340 34 1 1.0 0 0 0
445 9 -9.5373 -41.4806 -0.1340 34 1 1.0 0 0 0
446 8 -10.4649 -40.1232 -0.1340 34 1 1.0 0 0 0
447 8 -10.5303 -41.3248 -0.1340 34 1 1.0 0 0 0
448 8 -11.4690 -40.1704 -0.1340 34 1 1.0 0 0 0
449 8 -11.5233 -41.1690 -0.1340 34 1 1.0 0 0 0
450 2 -9.4337 -39.5767 -0.1340 34 1 1.0 0 0 0
451 3 -9.5644 -41.9799 -0.1340 34 1 1.0 0 0 0
452 4 -10.4378 -39.6239 -0.1340 34 1 1.0 0 0 0
453 5 -10.5574 -41.8241 -0.1340 34 1 1.0 0 0 0
454 6 -11.4418 -39.6712 -0.1340 34 1 1.0 0 0 0
455 7 -11.5504 -41.6682 -0.1340 34 1 1.0 0 0 0
456 9 27.4351 -11.4911 -0.1340 35 1 1.0 0 0 0
457 9 27.1204 -12.1202 -0.1340 35 1 1.0 0 0 0
458 9 26.8058 -12.7492 -0.1340 35 1 1.0 0 0 0
459 8 26.4952 -11.1347 -0.1340 35 1 1.0 0 0 0
460 8 25.9569 -12.2110 -0.1340 35 1 1.0 0 0 0
461 8 25.5554 -10.7783 -0.1340 35 1 1.0 0 0 0
462 8 25.1080 -11.6727 -0.1340 35 1 1.0 0 0 0
463 2 27.6588 -11.0439 -0.1340 35 1 1.0 0 0 0
464 3 26.5821 -13.1964 -0.1340 35 1 1.0 0 0 0
465 4 26.7189 -10.6875 -0.1340 35 1 1.0 0 0 0
466 5 25.7332 -12.6581 -0.1340 35 1 1.0 0 0 0
467 6 25.7791 -10.3311 -0.1340 35 1 1.0 0 0 0
468 7 24.8844 -12.1198 -0.1340 35 1 1.0 0 0 0
469 9 8.4800 -66.5287 -0.1340 36 1 1.0 0 0 0
470 9 8.5430 -65.8281 -0.1340 36 1 1.0 0 0 0
471 9 8.6059 -65.1276 -0.1340 36 1 1.0 0 0 0
472 8 9.4851 -66.5169 -0.1340 36 1 1.0 0 0 0
473 8 9.5928 -65.3183 -0.1340 36 1 1.0 0 0 0
474 8 10.4902 -66.5051 -0.1340 36 1 1.0 0 0 0
475 8 10.5797 -65.5091 -0.1340 36 1 1.0 0 0 0
476 2 8.4353 -67.0267 -0.1340 36 1 1.0 0 0 0
477 3 8.6506 -64.6296 -0.1340 36 1 1.0 0 0 0
478 4 9.4403 -67.0149 -0.1340 36 1 1.0 0 0 0
479 5 9.6375 -64.8204 -0.1340 36 1 1.0 0 0 0
480 6 10.4454 -67.0031 -0.1340 36 1 1.0 0 0 0
481 7 10.6244 -65.0111 -0.1340 36 1 1.0 0 0 0
482 9 41.3334 -41.3548 -0.1340 37 1 1.0 0 0 0
483 9 40.6722 -41.5948 -0.1340 37 1 1.0 0 0 0
484 9 40.0111 -41.8348 -0.1340 37 1 1.0 0 0 0
485 8 40.8966 -40.4495 -0.1340 37 1 1.0 0 0 0
486 8 39.7654 -40.8602 -0.1340 37 1 1.0 0 0 0
487 8 40.4597 -39.5442 -0.1340 37 1 1.0 0 0 0
488 8 39.5198 -39.8855 -0.1340 37 1 1.0 0 0 0
489 2 41.8034 -41.1842 -0.1340 37 1 1.0 0 0 0
490 3 39.5411 -42.0055 -0.1340 37 1 1.0 0 0 0
491 4 41.3665 -40.2789 -0.1340 37 1 1.0 0 0 0
492 5 39.2954 -41.0308 -0.1340 37 1 1.0 0 0 0
493 6 40.9297 -39.3736 -0.1340 37 1 1.0 0 0 0
494 7 39.0498 -40.0561 -0.1340 37 1 1.0 0 0 0
495 9 -22.7934 33.9803 -0.1340 38 1 1.0 0 0 0
496 9 -23.4838 33.8462 -0.1340 38 1 1.0 0 0 0
497 9 -24.1743 33.7120 -0.1340 38 1 1.0 0 0 0
498 8 -23.0839 34.9426 -0.1340 38 1 1.0 0 0 0
499 8 -24.2652 34.7131 -0.1340 38 1 1.0 0 0 0
500 8 -23.3745 35.9048 -0.1340 38 1 1.0 0 0 0
501 8 -24.3561 35.7141 -0.1340 38 1 1.0 0 0 0
502 2 -22.3026 34.0757 -0.1340 38 1 1.0 0 0 0
503 3 -24.6651 33.6167 -0.1340 38 1 1.0 0 0 0
504 4 -22.5931 35.0379 -0.1340 38 1 1.0 0 0 0
505 5 -24.7560 34.6177 -0.1340 38 1 1.0 0 0 0
506 6 -22.8836 36.0002 -0.1340 38 1 1.0 0 0 0
507 7 -24.8469 35.6188 -0.1340 38 1 1.0 0 0 0
508 9 -51.9996 -4.2858 -0.1340 39 1 1.0 0 0 0
509 9 -51.9589 -3.5836 -0.1340 39 1 1.0 0 0 0
510 9 -51.9182 -2.8814 -0.1340 39 1 1.0 0 0 0
511 8 -50.9954 -4.2422 -0.1340 39 1 1.0 0 0 0
512 8 -50.9258 -3.0408 -0.1340 39 1 1.0 0 0 0
513 8 -49.9912 -4.1985 -0.1340 39 1 1.0 0 0 0
514 8 -49.9333 -3.2002 -0.1340 39 1 1.0 0 0 0
515 2 -52.0285 -4.7850 -0.1340 39 1 1.0 0 0 0
516 3 -51.8893 -2.3823 -0.1340 39 1 1.0 0 0 0
517 4 -51.0243 -4.7413 -0.1340 39 1 1.0 0 0 0
518 5 -50.8968 -2.5417 -0.1340 39 1 1.0 0 0 0
519 6 -50.0201 -4.6977 -0.1340 39 1 1.0 0 0 0
520 7 -49.9044 -2.7010 -0.1340 39 1 1.0 0 0 0
521 9 -61.3135 -1.1015 -0.1340 40 1 1.0 0 0 0
522 9 -61.1663 -1.7893 -0.1340 40 1 1.0 0 0 0
523 9 -61.0190 -2.4771 -0.1340 40 1 1.0 0 0 0
524 8 -62.2700 -1.4103 -0.1340 40 1 1.0 0 0 0
525 8 -62.0182 -2.5870 -0.1340 40 1 1.0 0 0 0
526 8 -63.2266 -1.7190 -0.1340 40 1 1.0 0 0 0
527 8 -63.0173 -2.6969 -0.1340 40 1 1.0 0 0 0
528 2 -61.4181 -0.6126 -0.1340 40 1 1.0 0 0 0
529 3 -60.9144 -2.9660 -0.1340 40 1 1.0 0 0 0
530 4 -62.3747 -0.9213 -0.1340 40 1 1.0 0 0 0
531 5 -61.9135 -3.0759 -0.1340 40 1 1.0 0 0 0
532 6 -63.3313 -1.2301 -0.1340 40 1 1.0 0 0 0
533 7 -62.9126 -3.1858 -0.1340 40 1 1.0 0 0 0
534 9 -1.9359 33.1235 -0.1340 41 1 1.0 0 0 0
535 9 -2.4003 32.5952 -0.1340 41 1 1.0 0 0 0
536 9 -2.8647 32.0669 -0.1340 41 1 1.0 0 0 0
537 8 -2.7541 33.7073 -0.1340 41 1 1.0 0 0 0
538 8 -3.5486 32.8035 -0.1340 41 1 1.0 0 0 0
539 8 -3.5723 34.2912 -0.1340 41 1 1.0 0 0 0
540 8 -4.2325 33.5401 -0.1340 41 1 1.0 0 0 0
541 2 -1.6058 33.4990 -0.1340 41 1 1.0 0 0 0
542 3 -3.1948 31.6914 -0.1340 41 1 1.0 0 0 0
543 4 -2.4240 34.0829 -0.1340 41 1 1.0 0 0 0
544 5 -3.8787 32.4280 -0.1340 41 1 1.0 0 0 0
545 6 -3.2422 34.6667 -0.1340 41 1 1.0 0 0 0
546 7 -4.5626 33.1646 -0.1340 41 1 1.0 0 0 0
547 9 49.1077 -62.6921 -0.1340 42 1 1.0 0 0 0
548 9 49.6600 -62.2565 -0.1340 42 1 1.0 0 0 0
549 9 50.2122 -61.8209 -0.1340 42 1 1.0 0 0 0
550 8 49.8068 -63.4143 -0.1340 42 1 1.0 0 0 0
551 8 50.7517 -62.6691 -0.1340 42 1 1.0 0 0 0
552 8 50.5059 -64.1365 -0.1340 42 1 1.0 0 0 0
553 8 51.2911 -63.5173 -0.1340 42 1 1.0 0 0 0
554 2 48.7151 -63.0017 -0.1340 42 1 1.0 0 0 0
555 3 50.6048 -61.5113 -0.1340 42 1 1.0 0 0 0
556 4 49.4142 -63.7239 -0.1340 42 1 1.0 0 0 0
557 5 51.1443 -62.3595 -0.1340 42 1 1.0 0 0 0
558 6 50.1133 -64.4461 -0.1340 42 1 1.0 0 0 0
559 7 51.6837 -63.2076 -0.1340 42 1 1.0 0 0 0
560 9 -36.5206 5.4039 -0.1340 43 1 1.0 0 0 0
561 9 -36.0176 5.8957 -0.1340 43 1 1.0 0 0 0
562 9 -35.5147 6.3874 -0.1340 43 1 1.0 0 0 0
563 8 -35.7488 4.7600 -0.1340 43 1 1.0 0 0 0
564 8 -34.8883 5.6012 -0.1340 43 1 1.0 0 0 0
565 8 -34.9770 4.1160 -0.1340 43 1 1.0 0 0 0
566 8 -34.2620 4.8151 -0.1340 43 1 1.0 0 0 0
567 2 -36.8781 5.0544 -0.1340 43 1 1.0 0 0 0
568 3 -35.1572 6.7369 -0.1340 43 1 1.0 0 0 0
569 4 -36.1063 4.4105 -0.1340 43 1 1.0 0 0 0
570 5 -34.5308 5.9508 -0.1340 43 1 1.0 0 0 0
571 6 -35.3345 3.7665 -0.1340 43 1 1.0 0 0 0
572 7 -33.9044 5.1646 -0.1340 43 1 1.0 0 0 0
573 9 1.0416 -55.4150 -0.1340 44 1 1.0 0 0 0
574 9 1.1730 -54.7240 -0.1340 44 1 1.0 0 0 0
575 9 1.3044 -54.0330 -0.1340 44 1 1.0 0 0 0
576 8 2.0430 -55.5019 -0.1340 44 1 1.0 0 0 0
577 8 2.2678 -54.3198 -0.1340 44 1 1.0 0 0 0
578 8 3.0444 -55.5889 -0.1340 44 1 1.0 0 0 0
579 8 3.2312 -54.6065 -0.1340 44 1 1.0 0 0 0
580 2 0.9482 -55.9062 -0.1340 44 1 1.0 0 0 0
581 3 1.3978 -53.5418 -0.1340 44 1 1.0 0 0 0
582 4 1.9496 -55.9931 -0.1340 44 1 1.0 0 0 0
583 5 2.3612 -53.8286 -0.1340 44 1 1.0 0 0 0
584 6 2.9509 -56.0801 -0.1340 44 1 1.0 0 0 0
585 7 3.3246 -54.1153 -0.1340 44 1 1.0 0 0 0
586 9 -27.3250 -38.5768 -0.1340 45 1 1.0 0 0 0
587 9 -27.5109 -39.2552 -0.1340 45 1 1.0 0 0 0
588 9 -27.6968 -39.9336 -0.1340 45 1 1.0 0 0 0
589 8 -28.3163 -38.4106 -0.1340 45 1 1.0 0 0 0
590 8 -28.6344 -39.5712 -0.1340 45 1 1.0 0 0 0
591 8 -29.3077 -38.2444 -0.1340 45 1 1.0 0 0 0
592 8 -29.5719 -39.2088 -0.1340 45 1 1.0 0 0 0
593 2 -27.1929 -38.0946 -0.1340 45 1 1.0 0 0 0
594 3 -27.8290 -40.4158 -0.1340 45 1 1.0 0 0 0
595 4 -28.1842 -37.9284 -0.1340 45 1 1.0 0 0 0
596 5 -28.7665 -40.0534 -0.1340 45 1 1.0 0 0 0
597 6 -29.1755 -37.7622 -0.1340 45 1 1.0 0 0 0
598 7 -29.7041 -39.6911 -0.1340 45 1 1.0 0 0 0
599 9 -26.7952 -61.7311 -0.1340 46 1 1.0 0 0 0
600 9 -27.1743 -62.3236 -0.1340 46 1 1.0 0 0 0
601 9 -27.5534 -62.9161 -0.1340 46 1 1.0 0 0 0
602 8 -27.6924 -61.2778 -0.1340 46 1 1.0 0 0 0
603 8 -28.3409 -62.2915 -0.1340 46 1 1.0 0 0 0
604 8 -28.5895 -60.8245 -0.1340 46 1 1.0 0 0 0
605 8 -29.1285 -61.6669 -0.1340 46 1 1.0 0 0 0
606 2 -26.5257 -61.3099 -0.1340 46 1 1.0 0 0 0
607 3 -27.8229 -63.3372 -0.1340 46 1 1.0 0 0 0
608 4 -27.4229 -60.8567 -0.1340 46 1 1.0 0 0 0
609 5 -28.6104 -62.7126 -0.1340 46 1 1.0 0 0 0
610 6 -28.3200 -60.4034 -0.1340 46 1 1.0 0 0 0
611 7 -29.3979 -62.0880 -0.1340 46 1 1.0 0 0 0
612 9 -36.1836 -24.2138 -0.1340 47 1 1.0 0 0 0
613 9 -36.8763 -24.3361 -0.1340 47 1 1.0 0 0 0
614 9 -37.5690 -24.4583 -0.1340 47 1 1.0 0 0 0
615 8 -36.4575 -23.2467 -0.1340 47 1 1.0 0 0 0
616 8 -37.6426 -23.4559 -0.1340 47 1 1.0 0 0 0
617 8 -36.7315 -22.2796 -0.1340 47 1 1.0 0 0 0
618 8 -37.7163 -22.4534 -0.1340 47 1 1.0 0 0 0
619 2 -35.6912 -24.1270 -0.1340 47 1 1.0 0 0 0
620 3 -38.0614 -24.5452 -0.1340 47 1 1.0 0 0 0
621 4 -35.9651 -23.1598 -0.1340 47 1 1.0 0 0 0
622 5 -38.1350 -23.5428 -0.1340 47 1 1.0 0 0 0
623 6 -36.2391 -22.1927 -0.1340 47 1 1.0 0 0 0
624 7 -38.2086 -22.5403 -0.1340 47 1 1.0 0 0 0
625 9 -43.1113 68.6728 -0.1340 48 1 1.0 0 0 0
626 9 -43.8052 68.5582 -0.1340 48 1 1.0 0 0 0
627 9 -44.4992 68.4436 -0.1340 48 1 1.0 0 0 0
628 8 -43.3745 69.6429 -0.1340 48 1 1.0 0 0 0
629 8 -44.5618 69.4468 -0.1340 48 1 1.0 0 0 0
630 8 -43.6378 70.6130 -0.1340 48 1 1.0 0 0 0
631 8 -44.6244 70.4500 -0.1340 48 1 1.0 0 0 0
632 2 -42.6179 68.7543 -0.1340 48 1 1.0 0 0 0
633 3 -44.9925 68.3622 -0.1340 48 1 1.0 0 0 0
634 4 -42.8812 69.7244 -0.1340 48 1 1.0 0 0 0
635 5 -45.0551 69.3654 -0.1340 48 1 1.0 0 0 0
636 6 -43.1445 70.6944 -0.1340 48 1 1.0 0 0 0
637 7 -45.1177 70.3686 -0.1340 48 1 1.0 0 0 0
638 9 20.5186 -33.4527 -0.1340 49 1 1.0 0 0 0
639 9 20.5117 -32.7493 -0.1340 49 1 1.0 0 0 0
640 9 20.5049 -32.0460 -0.1340 49 1 1.0 0 0 0
641 8 21.5176 -33.3412 -0.1340 49 1 1.0 0 0 0
642 8 21.5058 -32.1379 -0.1340 49 1 1.0 0 0 0
643 8 22.5165 -33.2298 -0.1340 49 1 1.0 0 0 0
644 8 22.5068 -32.2298 -0.1340 49 1 1.0 0 0 0
645 2 20.5235 -33.9527 -0.1340 49 1 1.0 0 0 0
646 3 20.5000 -31.5460 -0.1340 49 1 1.0 0 0 0
647 4 21.5225 -33.8412 -0.1340 49 1 1.0 0 0 0
648 5 21.5009 -31.6379 -0.1340 49 1 1.0 0 0 0
649 6 22.5214 -33.7297 -0.1340 49 1 1.0 0 0 0
650 7 22.5019 -31.7298 -0.1340 49 1 1.0 0 0 0
651 9 -67.1876 52.2831 -0.1340 50 1 1.0 0 0 0
652 9 -67.8857 52.1976 -0.1340 50 1 1.0 0 0 0
653 9 -68.5839 52.1121 -0.1340 50 1 1.0 0 0 0
654 8 -67.4100 53.2633 -0.1340 50 1 1.0 0 0 0
655 8 -68.6045 53.1171 -0.1340 50 1 1.0 0 0 0