Initial configuration

17840   atoms
17840   ellipsoids
2355   bonds

9 atom types
1 bond types

-74.0 74.0 xlo xhi 
-74.0 74.0 ylo yhi 
-100.0 100.0 zlo zhi 

Masses

1 1
2 0.001
3 0.001
4 0.001
5 0.001
6 0.001
7 0.001
8 0.1
9 0.1

Atoms # hybrid

1 9 -63.7894 71.3764 0.0000 0 1 1.0 0 -1 0
2 9 -64.4311 71.0882 0.0000 0 1 1.0 0 -1 0
3 9 -65.0728 70.8000 0.0000 0 1 1.0 0 -1 0
4 8 -64.2919 72.2470 0.0000 0 1 1.0 0 -1 0
5 8 -65.3897 71.7539 0.0000 0 1 1.0 0 -1 0
6 8 -64.7944 73.1175 0.0000 0 1 1.0 0 -1 0
7 8 -65.7066 72.7078 0.0000 0 1 1.0 0 -1 0
8 2 -63.3333 71.5813 0.0000 0 1 1.0 0 -1 0
9 3 -65.5289 70.5952 0.0000 0 1 1.0 0 -1 0
10 4 -63.8358 72.4518 0.0000 0 1 1.0 0 -1 0
11 5 -65.8458 71.5491 0.0000 0 1 1.0 0 -1 0
12 6 -64.3383 73.3224 0.0000 0 1 1.0 0 -1 0
13 7 -66.1627 72.5029 0.0000 0 1 1.0 0 -1 0
14 9 -62.0266 73.1973 0.0000 1 1 1.0 0 -1 0
15 9 -62.5452 72.7222 0.0000 1 1 1.0 0 -1 0
16 9 -63.0638 72.2471 0.0000 1 1 1.0 0 -1 0
17 8 -62.7771 73.8660 0.0000 1 1 1.0 0 -1 0
18 8 -63.6644 73.0530 0.0000 1 1 1.0 0 -1 0
19 8 -63.5276 -73.4654 0.0000 1 1 1.0 0 0 0
20 8 -64.2650 73.8591 0.0000 1 1 1.0 0 -1 0
21 2 -61.6579 73.5351 0.0000 1 1 1.0 0 -1 0
22 3 -63.4325 71.9093 0.0000 1 1 1.0 0 -1 0
23 4 -62.4084 -73.7963 0.0000 1 1 1.0 0 0 0
24 5 -64.0331 72.7153 0.0000 1 1 1.0 0 -1 0
25 6 -63.1589 -73.1276 0.0000 1 1 1.0 0 0 0
26 7 -64.6336 73.5213 0.0000 1 1 1.0 0 -1 0
27 9 71.1903 -53.0704 0.0000 2 1 1.0 -1 0 0
28 9 71.8169 -52.7507 0.0000 2 1 1.0 -1 0 0
29 9 72.4434 -52.4311 0.0000 2 1 1.0 -1 0 0
30 8 71.7353 -53.9149 0.0000 2 1 1.0 -1 0 0
31 8 72.8073 -53.3681 0.0000 2 1 1.0 -1 0 0
32 8 72.2803 -54.7595 0.0000 2 1 1.0 -1 0 0
33 8 73.1711 -54.3051 0.0000 2 1 1.0 -1 0 0
34 2 70.7449 -53.2976 0.0000 2 1 1.0 -1 0 0
35 3 72.8888 -52.2039 0.0000 2 1 1.0 -1 0 0
36 4 71.2899 -54.1421 0.0000 2 1 1.0 -1 0 0
37 5 73.2527 -53.1409 0.0000 2 1 1.0 -1 0 0
38 6 71.8349 -54.9867 0.0000 2 1 1.0 -1 0 0
39 7 73.6165 -54.0779 0.0000 2 1 1.0 -1 0 0
40 9 -71.7803 -51.5088 0.0000 3 1 1.0 0 0 0
41 9 -71.0779 -51.5464 0.0000 3 1 1.0 0 0 0
42 9 -70.3755 -51.5840 0.0000 3 1 1.0 0 0 0
43 8 -71.7322 -52.5128 0.0000 3 1 1.0 0 0 0
44 8 -70.5305 -52.5772 0.0000 3 1 1.0 0 0 0
45 8 -71.6841 -53.5168 0.0000 3 1 1.0 0 0 0
46 8 -70.6855 -53.5703 0.0000 3 1 1.0 0 0 0
47 2 -72.2796 -51.4821 0.0000 3 1 1.0 0 0 0
48 3 -69.8762 -51.6108 0.0000 3 1 1.0 0 0 0
49 4 -72.2315 -52.4861 0.0000 3 1 1.0 0 0 0
50 5 -70.0312 -52.6039 0.0000 3 1 1.0 0 0 0
51 6 -72.1834 -53.4901 0.0000 3 1 1.0 0 0 0
52 7 -70.1862 -53.5970 0.0000 3 1 1.0 0 0 0
53 9 59.5697 -37.2125 0.0000 4 1 1.0 -1 0 0
54 9 59.2240 -36.6000 0.0000 4 1 1.0 -1 0 0
55 9 58.8782 -35.9875 0.0000 4 1 1.0 -1 0 0
56 8 60.3906 -36.6324 0.0000 4 1 1.0 -1 0 0
57 8 59.7990 -35.5844 0.0000 4 1 1.0 -1 0 0
58 8 61.2114 -36.0523 0.0000 4 1 1.0 -1 0 0
59 8 60.7199 -35.1814 0.0000 4 1 1.0 -1 0 0
60 2 59.8155 -37.6480 0.0000 4 1 1.0 -1 0 0
61 3 58.6324 -35.5520 0.0000 4 1 1.0 -1 0 0
62 4 60.6364 -37.0678 0.0000 4 1 1.0 -1 0 0
63 5 59.5532 -35.1490 0.0000 4 1 1.0 -1 0 0
64 6 61.4572 -36.4877 0.0000 4 1 1.0 -1 0 0
65 7 60.4741 -34.7460 0.0000 4 1 1.0 -1 0 0
66 9 64.9827 -49.6420 0.0000 5 1 1.0 -1 0 0
67 9 64.3128 -49.4276 0.0000 5 1 1.0 -1 0 0
68 9 63.6428 -49.2131 0.0000 5 1 1.0 -1 0 0
69 8 65.1906 -48.6586 0.0000 5 1 1.0 -1 0 0
70 8 64.0445 -48.2917 0.0000 5 1 1.0 -1 0 0
71 8 65.3986 -47.6751 0.0000 5 1 1.0 -1 0 0
72 8 64.4462 -47.3703 0.0000 5 1 1.0 -1 0 0
73 2 65.4589 -49.7944 0.0000 5 1 1.0 -1 0 0
74 3 63.1666 -49.0607 0.0000 5 1 1.0 -1 0 0
75 4 65.6668 -48.8110 0.0000 5 1 1.0 -1 0 0
76 5 63.5683 -48.1393 0.0000 5 1 1.0 -1 0 0
77 6 65.8748 -47.8276 0.0000 5 1 1.0 -1 0 0
78 7 63.9700 -47.2179 0.0000 5 1 1.0 -1 0 0
79 9 39.1265 -69.5451 0.0000 6 1 1.0 -1 0 0
80 9 38.6904 -68.9932 0.0000 6 1 1.0 -1 0 0
81 9 38.2543 -68.4413 0.0000 6 1 1.0 -1 0 0
82 8 39.8481 -68.8453 0.0000 6 1 1.0 -1 0 0
83 8 39.1019 -67.9011 0.0000 6 1 1.0 -1 0 0
84 8 40.5696 -68.1455 0.0000 6 1 1.0 -1 0 0
85 8 39.9496 -67.3609 0.0000 6 1 1.0 -1 0 0
86 2 39.4365 -69.9374 0.0000 6 1 1.0 -1 0 0
87 3 37.9443 -68.0490 0.0000 6 1 1.0 -1 0 0
88 4 40.1581 -69.2376 0.0000 6 1 1.0 -1 0 0
89 5 38.7919 -67.5088 0.0000 6 1 1.0 -1 0 0
90 6 40.8796 -68.5378 0.0000 6 1 1.0 -1 0 0
91 7 39.6396 -66.9686 0.0000 6 1 1.0 -1 0 0
92 9 -30.4844 -73.2692 0.0000 7 1 1.0 0 0 0
93 9 -30.9107 -73.8285 0.0000 7 1 1.0 0 0 0
94 9 -31.3371 73.6121 0.0000 7 1 1.0 0 -1 0
95 8 -31.3414 -72.7439 0.0000 7 1 1.0 0 0 0
96 8 -32.0708 -73.7009 0.0000 7 1 1.0 0 0 0
97 8 -32.1983 -72.2185 0.0000 7 1 1.0 0 0 0
98 8 -32.8045 -73.0138 0.0000 7 1 1.0 0 0 0
99 2 -30.1813 -72.8715 0.0000 7 1 1.0 0 0 0
100 3 -31.6402 73.2144 0.0000 7 1 1.0 0 -1 0
101 4 -31.0383 -72.3462 0.0000 7 1 1.0 0 0 0
102 5 -32.3739 73.9015 0.0000 7 1 1.0 0 -1 0
103 6 -31.8952 -71.8208 0.0000 7 1 1.0 0 0 0
104 7 -33.1076 -73.4114 0.0000 7 1 1.0 0 0 0
105 9 40.6184 -71.5231 0.0000 8 1 1.0 -1 0 0
106 9 40.1013 -71.0463 0.0000 8 1 1.0 -1 0 0
107 9 39.5842 -70.5694 0.0000 8 1 1.0 -1 0 0
108 8 41.2216 -70.7191 0.0000 8 1 1.0 -1 0 0
109 8 40.3369 -69.9033 0.0000 8 1 1.0 -1 0 0
110 8 41.8247 -69.9150 0.0000 8 1 1.0 -1 0 0
111 8 41.0896 -69.2371 0.0000 8 1 1.0 -1 0 0
112 2 40.9860 -71.8621 0.0000 8 1 1.0 -1 0 0
113 3 39.2166 -70.2305 0.0000 8 1 1.0 -1 0 0
114 4 41.5891 -71.0580 0.0000 8 1 1.0 -1 0 0
115 5 39.9693 -69.5643 0.0000 8 1 1.0 -1 0 0
116 6 42.1923 -70.2540 0.0000 8 1 1.0 -1 0 0
117 7 40.7220 -68.8981 0.0000 8 1 1.0 -1 0 0
118 9 42.9869 -72.5448 0.0000 9 1 1.0 -1 0 0
119 9 42.3779 -72.1931 0.0000 9 1 1.0 -1 0 0
120 9 41.7688 -71.8413 0.0000 9 1 1.0 -1 0 0
121 8 43.3990 -71.6280 0.0000 9 1 1.0 -1 0 0
122 8 42.3569 -71.0262 0.0000 9 1 1.0 -1 0 0
123 8 43.8111 -70.7112 0.0000 9 1 1.0 -1 0 0
124 8 42.9451 -70.2111 0.0000 9 1 1.0 -1 0 0
125 2 43.4199 -72.7948 0.0000 9 1 1.0 -1 0 0
126 3 41.3358 -71.5912 0.0000 9 1 1.0 -1 0 0
127 4 43.8320 -71.8780 0.0000 9 1 1.0 -1 0 0
128 5 41.9240 -70.7761 0.0000 9 1 1.0 -1 0 0
129 6 44.2441 -70.9612 0.0000 9 1 1.0 -1 0 0
130 7 42.5121 -69.9610 0.0000 9 1 1.0 -1 0 0
131 9 63.4829 -41.1066 0.0000 10 1 1.0 -1 0 0
132 9 62.9281 -40.6741 0.0000 10 1 1.0 -1 0 0
133 9 62.3733 -40.2417 0.0000 10 1 1.0 -1 0 0
134 8 64.0175 -40.2554 0.0000 10 1 1.0 -1 0 0
135 8 63.0684 -39.5155 0.0000 10 1 1.0 -1 0 0
136 8 64.5521 -39.4042 0.0000 10 1 1.0 -1 0 0
137 8 63.7634 -38.7894 0.0000 10 1 1.0 -1 0 0
138 2 63.8772 -41.4140 0.0000 10 1 1.0 -1 0 0
139 3 61.9790 -39.9343 0.0000 10 1 1.0 -1 0 0
140 4 64.4118 -40.5628 0.0000 10 1 1.0 -1 0 0
141 5 62.6740 -39.2081 0.0000 10 1 1.0 -1 0 0
142 6 64.9464 -39.7116 0.0000 10 1 1.0 -1 0 0
143 7 63.3690 -38.4820 0.0000 10 1 1.0 -1 0 0
144 9 -57.9148 -24.2422 0.0000 11 1 1.0 0 0 0
145 9 -57.7601 -23.5560 0.0000 11 1 1.0 0 0 0
146 9 -57.6054 -22.8698 0.0000 11 1 1.0 0 0 0
147 8 -56.9170 -24.3629 0.0000 11 1 1.0 0 0 0
148 8 -56.6523 -23.1890 0.0000 11 1 1.0 0 0 0
149 8 -55.9191 -24.4836 0.0000 11 1 1.0 0 0 0
150 8 -55.6991 -23.5081 0.0000 11 1 1.0 0 0 0
151 2 -58.0248 -24.7299 0.0000 11 1 1.0 0 0 0
152 3 -57.4955 -22.3821 0.0000 11 1 1.0 0 0 0
153 4 -57.0269 -24.8507 0.0000 11 1 1.0 0 0 0
154 5 -56.5423 -22.7012 0.0000 11 1 1.0 0 0 0
155 6 -56.0290 -24.9714 0.0000 11 1 1.0 0 0 0
156 7 -55.5892 -23.0204 0.0000 11 1 1.0 0 0 0
157 9 -55.1491 -34.1938 0.0000 12 1 1.0 0 0 0
158 9 -55.5585 -33.6218 0.0000 12 1 1.0 0 0 0
159 9 -55.9678 -33.0498 0.0000 12 1 1.0 0 0 0
160 8 -54.3951 -33.5292 0.0000 12 1 1.0 0 0 0
161 8 -55.0954 -32.5505 0.0000 12 1 1.0 0 0 0
162 8 -53.6410 -32.8645 0.0000 12 1 1.0 0 0 0
163 8 -54.2230 -32.0513 0.0000 12 1 1.0 0 0 0
164 2 -54.8582 -34.6004 0.0000 12 1 1.0 0 0 0
165 3 -56.2588 -32.6432 0.0000 12 1 1.0 0 0 0
166 4 -54.1041 -33.9358 0.0000 12 1 1.0 0 0 0
167 5 -55.3864 -32.1439 0.0000 12 1 1.0 0 0 0
168 6 -53.3501 -33.2712 0.0000 12 1 1.0 0 0 0
169 7 -54.5140 -31.6447 0.0000 12 1 1.0 0 0 0
170 9 -57.1911 -29.4383 0.0000 13 1 1.0 0 0 0
171 9 -57.3900 -28.7636 0.0000 13 1 1.0 0 0 0
172 9 -57.5889 -28.0889 0.0000 13 1 1.0 0 0 0
173 8 -56.2607 -29.0580 0.0000 13 1 1.0 0 0 0
174 8 -56.6010 -27.9037 0.0000 13 1 1.0 0 0 0
175 8 -55.3302 -28.6777 0.0000 13 1 1.0 0 0 0
176 8 -55.6130 -27.7185 0.0000 13 1 1.0 0 0 0
177 2 -57.0497 -29.9179 0.0000 13 1 1.0 0 0 0
178 3 -57.7303 -27.6093 0.0000 13 1 1.0 0 0 0
179 4 -56.1193 -29.5376 0.0000 13 1 1.0 0 0 0
180 5 -56.7424 -27.4241 0.0000 13 1 1.0 0 0 0
181 6 -55.1889 -29.1572 0.0000 13 1 1.0 0 0 0
182 7 -55.7544 -27.2389 0.0000 13 1 1.0 0 0 0
183 9 -67.4011 -36.6486 0.0000 14 1 1.0 0 0 0
184 9 -67.4398 -37.3509 0.0000 14 1 1.0 0 0 0
185 9 -67.4784 -38.0532 0.0000 14 1 1.0 0 0 0
186 8 -68.4052 -36.6951 0.0000 14 1 1.0 0 0 0
187 8 -68.4713 -37.8966 0.0000 14 1 1.0 0 0 0
188 8 -69.4092 -36.7417 0.0000 14 1 1.0 0 0 0
189 8 -69.4642 -37.7402 0.0000 14 1 1.0 0 0 0
190 2 -67.3736 -36.1493 0.0000 14 1 1.0 0 0 0
191 3 -67.5059 -38.5524 0.0000 14 1 1.0 0 0 0
192 4 -68.3777 -36.1959 0.0000 14 1 1.0 0 0 0
193 5 -68.4988 -38.3959 0.0000 14 1 1.0 0 0 0
194 6 -69.3818 -36.2425 0.0000 14 1 1.0 0 0 0
195 7 -69.4917 -38.2394 0.0000 14 1 1.0 0 0 0
196 9 -51.3169 -16.9952 0.0000 15 1 1.0 0 0 0
197 9 -50.6589 -16.7465 0.0000 15 1 1.0 0 0 0
198 9 -50.0010 -16.4979 0.0000 15 1 1.0 0 0 0
199 8 -50.8683 -17.8947 0.0000 15 1 1.0 0 0 0
200 8 -49.7427 -17.4693 0.0000 15 1 1.0 0 0 0
201 8 -50.4196 -18.7942 0.0000 15 1 1.0 0 0 0
202 8 -49.4842 -18.4407 0.0000 15 1 1.0 0 0 0
203 2 -51.7846 -17.1719 0.0000 15 1 1.0 0 0 0
204 3 -49.5333 -16.3212 0.0000 15 1 1.0 0 0 0
205 4 -51.3360 -18.0714 0.0000 15 1 1.0 0 0 0
206 5 -49.2749 -17.2926 0.0000 15 1 1.0 0 0 0
207 6 -50.8874 -18.9709 0.0000 15 1 1.0 0 0 0
208 7 -49.0165 -18.2639 0.0000 15 1 1.0 0 0 0
209 9 73.8749 3.2901 0.0000 16 1 1.0 -1 0 0
210 9 -73.5621 3.7117 0.0000 16 1 1.0 0 0 0
211 9 -72.9991 4.1334 0.0000 16 1 1.0 0 0 0
212 8 -73.4443 2.5506 0.0000 16 1 1.0 0 0 0
213 8 -72.4811 3.2720 0.0000 16 1 1.0 0 0 0
214 8 -72.7635 1.8112 0.0000 16 1 1.0 0 0 0
215 8 -71.9630 2.4106 0.0000 16 1 1.0 0 0 0
216 2 73.4747 2.9904 0.0000 16 1 1.0 -1 0 0
217 3 -72.5989 4.4331 0.0000 16 1 1.0 0 0 0
218 4 -73.8445 2.2509 0.0000 16 1 1.0 0 0 0
219 5 -72.0809 3.5717 0.0000 16 1 1.0 0 0 0
220 6 -73.1637 1.5115 0.0000 16 1 1.0 0 0 0
221 7 -71.5628 2.7103 0.0000 16 1 1.0 0 0 0
222 9 -71.7664 4.3599 0.0000 17 1 1.0 0 0 0
223 9 -71.0844 4.5320 0.0000 17 1 1.0 0 0 0
224 9 -70.4024 4.7040 0.0000 17 1 1.0 0 0 0
225 8 -71.4233 3.4152 0.0000 17 1 1.0 0 0 0
226 8 -70.2564 3.7095 0.0000 17 1 1.0 0 0 0
227 8 -71.0801 2.4704 0.0000 17 1 1.0 0 0 0
228 8 -70.1104 2.7150 0.0000 17 1 1.0 0 0 0
229 2 -72.2512 4.2376 0.0000 17 1 1.0 0 0 0
230 3 -69.9176 4.8263 0.0000 17 1 1.0 0 0 0
231 4 -71.9081 3.2929 0.0000 17 1 1.0 0 0 0
232 5 -69.7716 3.8318 0.0000 17 1 1.0 0 0 0
233 6 -71.5649 2.3481 0.0000 17 1 1.0 0 0 0
234 7 -69.6256 2.8373 0.0000 17 1 1.0 0 0 0
235 9 -69.2043 5.1696 0.0000 18 1 1.0 0 0 0
236 9 -68.5052 5.2473 0.0000 18 1 1.0 0 0 0
237 9 -67.8061 5.3249 0.0000 18 1 1.0 0 0 0
238 8 -68.9928 4.1870 0.0000 18 1 1.0 0 0 0
239 8 -67.7967 4.3198 0.0000 18 1 1.0 0 0 0
240 8 -68.7813 3.2043 0.0000 18 1 1.0 0 0 0
241 8 -67.7874 3.3147 0.0000 18 1 1.0 0 0 0
242 2 -69.7012 5.1145 0.0000 18 1 1.0 0 0 0
243 3 -67.3091 5.3801 0.0000 18 1 1.0 0 0 0
244 4 -69.4897 4.1318 0.0000 18 1 1.0 0 0 0
245 5 -67.2998 4.3750 0.0000 18 1 1.0 0 0 0
246 6 -69.2783 3.1491 0.0000 18 1 1.0 0 0 0
247 7 -67.2905 3.3699 0.0000 18 1 1.0 0 0 0
248 9 48.3235 4.0831 0.0000 19 1 1.0 -1 0 0
249 9 47.8253 4.5796 0.0000 19 1 1.0 -1 0 0
250 9 47.3272 5.0761 0.0000 19 1 1.0 -1 0 0
251 8 48.9574 4.8632 0.0000 19 1 1.0 -1 0 0
252 8 48.1051 5.7126 0.0000 19 1 1.0 -1 0 0
253 8 49.5913 5.6433 0.0000 19 1 1.0 -1 0 0
254 8 48.8829 6.3492 0.0000 19 1 1.0 -1 0 0
255 2 48.6777 3.7302 0.0000 19 1 1.0 -1 0 0
256 3 46.9730 5.4290 0.0000 19 1 1.0 -1 0 0
257 4 49.3116 4.5103 0.0000 19 1 1.0 -1 0 0
258 5 47.7509 6.0656 0.0000 19 1 1.0 -1 0 0
259 6 49.9454 5.2904 0.0000 19 1 1.0 -1 0 0
260 7 48.5288 6.7021 0.0000 19 1 1.0 -1 0 0
261 9 46.3057 5.9319 0.0000 20 1 1.0 -1 0 0
262 9 45.8873 6.4973 0.0000 20 1 1.0 -1 0 0
263 9 45.4688 7.0626 0.0000 20 1 1.0 -1 0 0
264 8 47.0490 6.6085 0.0000 20 1 1.0 -1 0 0
265 8 46.3331 7.5758 0.0000 20 1 1.0 -1 0 0
266 8 47.7923 7.2851 0.0000 20 1 1.0 -1 0 0
267 8 47.1974 8.0889 0.0000 20 1 1.0 -1 0 0
268 2 46.6032 5.5300 0.0000 20 1 1.0 -1 0 0
269 3 45.1714 7.4646 0.0000 20 1 1.0 -1 0 0
270 4 47.3465 6.2066 0.0000 20 1 1.0 -1 0 0
271 5 46.0357 7.9777 0.0000 20 1 1.0 -1 0 0
272 6 48.0898 6.8832 0.0000 20 1 1.0 -1 0 0
273 7 46.9000 8.4908 0.0000 20 1 1.0 -1 0 0
274 9 -59.7387 48.1953 0.0000 21 1 1.0 0 0 0
275 9 -59.6752 47.4948 0.0000 21 1 1.0 0 0 0
276 9 -59.6118 46.7942 0.0000 21 1 1.0 0 0 0
277 8 -60.7254 48.0038 0.0000 21 1 1.0 0 0 0
278 8 -60.6169 46.8053 0.0000 21 1 1.0 0 0 0
279 8 -61.7122 47.8124 0.0000 21 1 1.0 0 0 0
280 8 -61.6220 46.8165 0.0000 21 1 1.0 0 0 0
281 2 -59.7837 48.6933 0.0000 21 1 1.0 0 0 0
282 3 -59.5667 46.2963 0.0000 21 1 1.0 0 0 0
283 4 -60.7705 48.5018 0.0000 21 1 1.0 0 0 0
284 5 -60.5718 46.3074 0.0000 21 1 1.0 0 0 0
285 6 -61.7573 48.3103 0.0000 21 1 1.0 0 0 0
286 7 -61.5769 46.3185 0.0000 21 1 1.0 0 0 0
287 9 50.5865 48.6804 0.0000 22 1 1.0 -1 0 0
288 9 49.9035 48.8485 0.0000 22 1 1.0 -1 0 0
289 9 49.2205 49.0167 0.0000 22 1 1.0 -1 0 0
290 8 50.7269 49.6757 0.0000 22 1 1.0 -1 0 0
291 8 49.5584 49.9634 0.0000 22 1 1.0 -1 0 0
292 8 50.8672 50.6710 0.0000 22 1 1.0 -1 0 0
293 8 49.8962 50.9101 0.0000 22 1 1.0 -1 0 0
294 2 51.0720 48.5608 0.0000 22 1 1.0 -1 0 0
295 3 48.7350 49.1363 0.0000 22 1 1.0 -1 0 0
296 4 51.2124 49.5561 0.0000 22 1 1.0 -1 0 0
297 5 49.0729 50.0830 0.0000 22 1 1.0 -1 0 0
298 6 51.3527 50.5514 0.0000 22 1 1.0 -1 0 0
299 7 49.4107 51.0296 0.0000 22 1 1.0 -1 0 0
300 9 -61.2048 53.3858 0.0000 23 1 1.0 0 0 0
301 9 -60.9012 52.7514 0.0000 23 1 1.0 0 0 0
302 9 -60.5976 52.1168 0.0000 23 1 1.0 0 0 0
303 8 -62.0630 52.8625 0.0000 23 1 1.0 0 0 0
304 8 -61.5436 51.7770 0.0000 23 1 1.0 0 0 0
305 8 -62.9212 52.3392 0.0000 23 1 1.0 0 0 0
306 8 -62.4896 51.4371 0.0000 23 1 1.0 0 0 0
307 2 -61.4205 53.8368 0.0000 23 1 1.0 0 0 0
308 3 -60.3818 51.6658 0.0000 23 1 1.0 0 0 0
309 4 -62.2788 53.3136 0.0000 23 1 1.0 0 0 0
310 5 -61.3278 51.3260 0.0000 23 1 1.0 0 0 0
311 6 -63.1369 52.7903 0.0000 23 1 1.0 0 0 0
312 7 -62.2738 50.9861 0.0000 23 1 1.0 0 0 0
313 9 53.2917 48.3156 0.0000 24 1 1.0 -1 0 0
314 9 52.5904 48.3700 0.0000 24 1 1.0 -1 0 0
315 9 51.8891 48.4244 0.0000 24 1 1.0 -1 0 0
316 8 53.2676 49.3205 0.0000 24 1 1.0 -1 0 0
317 8 52.0678 49.4135 0.0000 24 1 1.0 -1 0 0
318 8 53.2435 50.3253 0.0000 24 1 1.0 -1 0 0
319 8 52.2465 50.4027 0.0000 24 1 1.0 -1 0 0
320 2 53.7902 48.2769 0.0000 24 1 1.0 -1 0 0
321 3 51.3906 48.4631 0.0000 24 1 1.0 -1 0 0
322 4 53.7661 49.2818 0.0000 24 1 1.0 -1 0 0
323 5 51.5693 49.4522 0.0000 24 1 1.0 -1 0 0
324 6 53.7420 50.2867 0.0000 24 1 1.0 -1 0 0
325 7 51.7480 50.4413 0.0000 24 1 1.0 -1 0 0
326 9 64.9606 -71.9429 0.0000 25 1 1.0 -1 1 0
327 9 64.7955 -71.2591 0.0000 25 1 1.0 -1 1 0
328 9 64.6304 -70.5754 0.0000 25 1 1.0 -1 1 0
329 8 65.9088 -71.6093 0.0000 25 1 1.0 -1 1 0
330 8 65.6264 -70.4395 0.0000 25 1 1.0 -1 1 0
331 8 66.8570 -71.2758 0.0000 25 1 1.0 -1 1 0
332 8 66.6223 -70.3037 0.0000 25 1 1.0 -1 1 0
333 2 65.0780 -72.4289 0.0000 25 1 1.0 -1 1 0
334 3 64.5131 -70.0893 0.0000 25 1 1.0 -1 1 0
335 4 66.0262 -72.0954 0.0000 25 1 1.0 -1 1 0
336 5 65.5090 -69.9535 0.0000 25 1 1.0 -1 1 0
337 6 66.9744 -71.7618 0.0000 25 1 1.0 -1 1 0
338 7 66.5050 -69.8177 0.0000 25 1 1.0 -1 1 0
339 9 66.2905 73.9752 0.0000 26 1 1.0 -1 0 0
340 9 65.9759 -73.3957 0.0000 26 1 1.0 -1 1 0
341 9 65.6612 -72.7666 0.0000 26 1 1.0 -1 1 0
342 8 67.1394 -73.4865 0.0000 26 1 1.0 -1 1 0
343 8 66.6011 -72.4103 0.0000 26 1 1.0 -1 1 0
344 8 67.9883 -72.9483 0.0000 26 1 1.0 -1 1 0
345 8 67.5410 -72.0539 0.0000 26 1 1.0 -1 1 0
346 2 66.5142 73.5280 0.0000 26 1 1.0 -1 0 0
347 3 65.4376 -72.3194 0.0000 26 1 1.0 -1 1 0
348 4 67.3631 -73.9337 0.0000 26 1 1.0 -1 1 0
349 5 66.3775 -71.9631 0.0000 26 1 1.0 -1 1 0
350 6 68.2120 -73.3954 0.0000 26 1 1.0 -1 1 0
351 7 67.3173 -71.6067 0.0000 26 1 1.0 -1 1 0
352 9 -65.9158 70.0653 0.0000 27 1 1.0 0 0 0
353 9 -66.6037 69.9192 0.0000 27 1 1.0 0 0 0
354 9 -67.2918 69.7731 0.0000 27 1 1.0 0 0 0
355 8 -66.2230 71.0223 0.0000 27 1 1.0 0 0 0
356 8 -67.4000 70.7724 0.0000 27 1 1.0 0 0 0
357 8 -66.5301 71.9794 0.0000 27 1 1.0 0 0 0
358 8 -67.5083 71.7717 0.0000 27 1 1.0 0 0 0
359 2 -65.4267 70.1692 0.0000 27 1 1.0 0 0 0
360 3 -67.7809 69.6692 0.0000 27 1 1.0 0 0 0
361 4 -65.7339 71.1262 0.0000 27 1 1.0 0 0 0
362 5 -67.8891 70.6685 0.0000 27 1 1.0 0 0 0
363 6 -66.0410 72.0833 0.0000 27 1 1.0 0 0 0
364 7 -67.9974 71.6678 0.0000 27 1 1.0 0 0 0
365 9 -68.2362 69.2435 0.0000 28 1 1.0 0 0 0
366 9 -68.9311 69.1348 0.0000 28 1 1.0 0 0 0
367 9 -69.6260 69.0260 0.0000 28 1 1.0 0 0 0
368 8 -68.4912 70.2157 0.0000 28 1 1.0 0 0 0
369 8 -69.6802 70.0297 0.0000 28 1 1.0 0 0 0
370 8 -68.7463 71.1880 0.0000 28 1 1.0 0 0 0
371 8 -69.7343 71.0334 0.0000 28 1 1.0 0 0 0
372 2 -67.7422 69.3208 0.0000 28 1 1.0 0 0 0
373 3 -70.1200 68.9487 0.0000 28 1 1.0 0 0 0
374 4 -67.9973 70.2930 0.0000 28 1 1.0 0 0 0
375 5 -70.1742 69.9524 0.0000 28 1 1.0 0 0 0
376 6 -68.2523 71.2653 0.0000 28 1 1.0 0 0 0
377 7 -70.2283 70.9561 0.0000 28 1 1.0 0 0 0
378 9 64.2099 -55.7583 0.0000 29 1 1.0 -1 0 0
379 9 64.3307 -56.4512 0.0000 29 1 1.0 -1 0 0
380 9 64.4514 -57.1442 0.0000 29 1 1.0 -1 0 0
381 8 63.2422 -56.0301 0.0000 29 1 1.0 -1 0 0
382 8 63.4488 -57.2157 0.0000 29 1 1.0 -1 0 0
383 8 62.2745 -56.3020 0.0000 29 1 1.0 -1 0 0
384 8 62.4462 -57.2872 0.0000 29 1 1.0 -1 0 0
385 2 64.1241 -55.2657 0.0000 29 1 1.0 -1 0 0
386 3 64.5373 -57.6368 0.0000 29 1 1.0 -1 0 0
387 4 63.1564 -55.5376 0.0000 29 1 1.0 -1 0 0
388 5 63.5347 -57.7083 0.0000 29 1 1.0 -1 0 0
389 6 62.1887 -55.8094 0.0000 29 1 1.0 -1 0 0
390 7 62.5321 -57.7797 0.0000 29 1 1.0 -1 0 0
391 9 73.5285 -51.6670 0.0000 30 1 1.0 -1 0 0
392 9 -73.7935 -51.4796 0.0000 30 1 1.0 0 0 0
393 9 -73.1155 -51.2922 0.0000 30 1 1.0 0 0 0
394 8 73.8930 -52.6037 0.0000 30 1 1.0 -1 0 0
395 8 -72.9471 -52.2831 0.0000 30 1 1.0 0 0 0
396 8 -73.7426 -53.5405 0.0000 30 1 1.0 0 0 0
397 8 -72.7787 -53.2741 0.0000 30 1 1.0 0 0 0
398 2 73.0466 -51.8002 0.0000 30 1 1.0 -1 0 0
399 3 -72.6336 -51.1590 0.0000 30 1 1.0 0 0 0
400 4 73.4110 -52.7369 0.0000 30 1 1.0 -1 0 0
401 5 -72.4652 -52.1499 0.0000 30 1 1.0 0 0 0
402 6 73.7755 -53.6737 0.0000 30 1 1.0 -1 0 0
403 7 -72.2968 -53.1409 0.0000 30 1 1.0 0 0 0
404 9 -66.5869 -52.6133 0.0000 31 1 1.0 0 0 0
405 9 -65.9444 -52.8993 0.0000 31 1 1.0 0 0 0
406 9 -65.3018 -53.1854 0.0000 31 1 1.0 0 0 0
407 8 -66.9008 -53.5682 0.0000 31 1 1.0 0 0 0
408 8 -65.8015 -54.0576 0.0000 31 1 1.0 0 0 0
409 8 -67.2147 -54.5230 0.0000 31 1 1.0 0 0 0
410 8 -66.3012 -54.9298 0.0000 31 1 1.0 0 0 0
411 2 -67.0437 -52.4099 0.0000 31 1 1.0 0 0 0
412 3 -64.8451 -53.3888 0.0000 31 1 1.0 0 0 0
413 4 -67.3575 -53.3648 0.0000 31 1 1.0 0 0 0
414 5 -65.3447 -54.2610 0.0000 31 1 1.0 0 0 0
415 6 -67.6715 -54.3196 0.0000 31 1 1.0 0 0 0
416 7 -65.8444 -55.1332 0.0000 31 1 1.0 0 0 0
417 9 -64.6185 -53.8859 0.0000 32 1 1.0 0 0 0
418 9 -63.9941 -54.2097 0.0000 32 1 1.0 0 0 0
419 9 -63.3697 -54.5336 0.0000 32 1 1.0 0 0 0
420 8 -64.9886 -54.8204 0.0000 32 1 1.0 0 0 0
421 8 -63.9204 -55.3745 0.0000 32 1 1.0 0 0 0
422 8 -65.3587 -55.7550 0.0000 32 1 1.0 0 0 0
423 8 -64.4710 -56.2154 0.0000 32 1 1.0 0 0 0
424 2 -65.0624 -53.6557 0.0000 32 1 1.0 0 0 0
425 3 -62.9258 -54.7638 0.0000 32 1 1.0 0 0 0
426 4 -65.4325 -54.5902 0.0000 32 1 1.0 0 0 0
427 5 -63.4765 -55.6047 0.0000 32 1 1.0 0 0 0
428 6 -65.8026 -55.5248 0.0000 32 1 1.0 0 0 0
429 7 -64.0272 -56.4456 0.0000 32 1 1.0 0 0 0
430 9 -69.0704 -51.6543 0.0000 33 1 1.0 0 0 0
431 9 -68.3823 -51.8001 0.0000 33 1 1.0 0 0 0
432 9 -67.6942 -51.9460 0.0000 33 1 1.0 0 0 0
433 8 -69.1783 -52.6536 0.0000 33 1 1.0 0 0 0
434 8 -68.0011 -52.9032 0.0000 33 1 1.0 0 0 0
435 8 -69.2862 -53.6530 0.0000 33 1 1.0 0 0 0
436 8 -68.3079 -53.8603 0.0000 33 1 1.0 0 0 0
437 2 -69.5595 -51.5506 0.0000 33 1 1.0 0 0 0
438 3 -67.2051 -52.0497 0.0000 33 1 1.0 0 0 0
439 4 -69.6674 -52.5499 0.0000 33 1 1.0 0 0 0
440 5 -67.5119 -53.0068 0.0000 33 1 1.0 0 0 0
441 6 -69.7753 -53.5493 0.0000 33 1 1.0 0 0 0
442 7 -67.8188 -53.9640 0.0000 33 1 1.0 0 0 0
443 9 -28.1499 -63.3393 0.0000 34 1 1.0 0 0 0
444 9 -28.1948 -64.0412 0.0000 34 1 1.0 0 0 0
445 9 -28.2396 -64.7431 0.0000 34 1 1.0 0 0 0
446 8 -29.1543 -63.3770 0.0000 34 1 1.0 0 0 0
447 8 -29.2311 -64.5779 0.0000 34 1 1.0 0 0 0
448 8 -30.1588 -63.4147 0.0000 34 1 1.0 0 0 0
449 8 -30.2226 -64.4127 0.0000 34 1 1.0 0 0 0
450 2 -28.1180 -62.8403 0.0000 34 1 1.0 0 0 0
451 3 -28.2715 -65.2421 0.0000 34 1 1.0 0 0 0
452 4 -29.1225 -62.8780 0.0000 34 1 1.0 0 0 0
453 5 -29.2630 -65.0769 0.0000 34 1 1.0 0 0 0
454 6 -30.1269 -62.9157 0.0000 34 1 1.0 0 0 0
455 7 -30.2545 -64.9116 0.0000 34 1 1.0 0 0 0
456 9 -28.3770 -68.1583 0.0000 35 1 1.0 0 0 0
457 9 -28.6029 -68.8245 0.0000 35 1 1.0 0 0 0
458 9 -28.8287 -69.4906 0.0000 35 1 1.0 0 0 0
459 8 -29.3568 -67.9336 0.0000 35 1 1.0 0 0 0
460 8 -29.7431 -69.0733 0.0000 35 1 1.0 0 0 0
461 8 -30.3365 -67.7089 0.0000 35 1 1.0 0 0 0
462 8 -30.6575 -68.6559 0.0000 35 1 1.0 0 0 0
463 2 -28.2165 -67.6848 0.0000 35 1 1.0 0 0 0
464 3 -28.9892 -69.9641 0.0000 35 1 1.0 0 0 0
465 4 -29.1962 -67.4601 0.0000 35 1 1.0 0 0 0
466 5 -29.9036 -69.5468 0.0000 35 1 1.0 0 0 0
467 6 -30.1759 -67.2353 0.0000 35 1 1.0 0 0 0
468 7 -30.8181 -69.1295 0.0000 35 1 1.0 0 0 0
469 9 -29.1683 -70.7848 0.0000 36 1 1.0 0 0 0
470 9 -29.4805 -71.4152 0.0000 36 1 1.0 0 0 0
471 9 -29.7927 -72.0455 0.0000 36 1 1.0 0 0 0
472 8 -30.1096 -70.4322 0.0000 36 1 1.0 0 0 0
473 8 -30.6437 -71.5106 0.0000 36 1 1.0 0 0 0
474 8 -31.0509 -70.0795 0.0000 36 1 1.0 0 0 0
475 8 -31.4947 -70.9756 0.0000 36 1 1.0 0 0 0
476 2 -28.9464 -70.3368 0.0000 36 1 1.0 0 0 0
477 3 -30.0146 -72.4936 0.0000 36 1 1.0 0 0 0
478 4 -29.8877 -69.9841 0.0000 36 1 1.0 0 0 0
479 5 -30.8656 -71.9586 0.0000 36 1 1.0 0 0 0
480 6 -30.8290 -69.6314 0.0000 36 1 1.0 0 0 0
481 7 -31.7166 -71.4237 0.0000 36 1 1.0 0 0 0
482 9 -71.6288 -45.2157 0.0000 37 1 1.0 0 0 0
483 9 -72.1692 -45.6659 0.0000 37 1 1.0 0 0 0
484 9 -72.7097 -46.1161 0.0000 37 1 1.0 0 0 0
485 8 -72.3470 -44.5125 0.0000 37 1 1.0 0 0 0
486 8 -73.2716 -45.2827 0.0000 37 1 1.0 0 0 0
487 8 -73.0651 -43.8092 0.0000 37 1 1.0 0 0 0
488 8 -73.8335 -44.4492 0.0000 37 1 1.0 0 0 0
489 2 -71.2446 -44.8957 0.0000 37 1 1.0 0 0 0
490 3 -73.0939 -46.4361 0.0000 37 1 1.0 0 0 0
491 4 -71.9628 -44.1924 0.0000 37 1 1.0 0 0 0
492 5 -73.6558 -45.6027 0.0000 37 1 1.0 0 0 0
493 6 -72.6810 -43.4892 0.0000 37 1 1.0 0 0 0
494 7 73.7824 -44.7693 0.0000 37 1 1.0 -1 0 0
495 9 -69.6033 -43.6174 0.0000 38 1 1.0 0 0 0
496 9 -70.0859 -44.1291 0.0000 38 1 1.0 0 0 0
497 9 -70.5685 -44.6409 0.0000 38 1 1.0 0 0 0
498 8 -70.4006 -43.0053 0.0000 38 1 1.0 0 0 0
499 8 -71.2263 -43.8808 0.0000 38 1 1.0 0 0 0
500 8 -71.1979 -42.3932 0.0000 38 1 1.0 0 0 0
501 8 -71.8840 -43.1207 0.0000 38 1 1.0 0 0 0
502 2 -69.2603 -43.2537 0.0000 38 1 1.0 0 0 0
503 3 -70.9116 -45.0046 0.0000 38 1 1.0 0 0 0
504 4 -70.0576 -42.6416 0.0000 38 1 1.0 0 0 0
505 5 -71.5693 -44.2445 0.0000 38 1 1.0 0 0 0
506 6 -70.8548 -42.0294 0.0000 38 1 1.0 0 0 0
507 7 -72.2270 -43.4844 0.0000 38 1 1.0 0 0 0
508 9 -57.4550 -26.9694 0.0000 39 1 1.0 0 0 0
509 9 -57.5372 -26.2708 0.0000 39 1 1.0 0 0 0
510 9 -57.6193 -25.5724 0.0000 39 1 1.0 0 0 0
511 8 -56.4738 -26.7517 0.0000 39 1 1.0 0 0 0
512 8 -56.6142 -25.5566 0.0000 39 1 1.0 0 0 0
513 8 -55.4925 -26.5339 0.0000 39 1 1.0 0 0 0
514 8 -55.6092 -25.5408 0.0000 39 1 1.0 0 0 0
515 2 -57.3967 -27.4660 0.0000 39 1 1.0 0 0 0
516 3 -57.6776 -25.0758 0.0000 39 1 1.0 0 0 0
517 4 -56.4154 -27.2483 0.0000 39 1 1.0 0 0 0
518 5 -56.6726 -25.0600 0.0000 39 1 1.0 0 0 0
519 6 -55.4341 -27.0305 0.0000 39 1 1.0 0 0 0
520 7 -55.6676 -25.0442 0.0000 39 1 1.0 0 0 0
521 9 -56.5697 -31.9036 0.0000 40 1 1.0 0 0 0
522 9 -56.8777 -31.2713 0.0000 40 1 1.0 0 0 0
523 9 -57.1858 -30.6389 0.0000 40 1 1.0 0 0 0
524 8 -55.7152 -31.3743 0.0000 40 1 1.0 0 0 0
525 8 -56.2423 -30.2924 0.0000 40 1 1.0 0 0 0
526 8 -54.8608 -30.8449 0.0000 40 1 1.0 0 0 0
527 8 -55.2987 -29.9459 0.0000 40 1 1.0 0 0 0
528 2 -56.3507 -32.3531 0.0000 40 1 1.0 0 0 0
529 3 -57.4048 -30.1894 0.0000 40 1 1.0 0 0 0
530 4 -55.4963 -31.8238 0.0000 40 1 1.0 0 0 0
531 5 -56.4612 -29.8429 0.0000 40 1 1.0 0 0 0
532 6 -54.6418 -31.2944 0.0000 40 1 1.0 0 0 0
533 7 -55.5177 -29.4964 0.0000 40 1 1.0 0 0 0
534 9 -24.5583 27.2523 0.0000 41 1 1.0 0 0 0
535 9 -23.8817 27.0597 0.0000 41 1 1.0 0 0 0
536 9 -23.2053 26.8671 0.0000 41 1 1.0 0 0 0
537 8 -24.7342 26.2626 0.0000 41 1 1.0 0 0 0
538 8 -23.5769 25.9332 0.0000 41 1 1.0 0 0 0
539 8 -24.9102 25.2730 0.0000 41 1 1.0 0 0 0
540 8 -23.9484 24.9992 0.0000 41 1 1.0 0 0 0
541 2 -25.0392 27.3891 0.0000 41 1 1.0 0 0 0
542 3 -22.7244 26.7302 0.0000 41 1 1.0 0 0 0
543 4 -25.2151 26.3995 0.0000 41 1 1.0 0 0 0
544 5 -23.0960 25.7963 0.0000 41 1 1.0 0 0 0
545 6 -25.3911 25.4099 0.0000 41 1 1.0 0 0 0
546 7 -23.4675 24.8623 0.0000 41 1 1.0 0 0 0
547 9 -65.9413 -15.3634 0.0000 42 1 1.0 0 0 0
548 9 -66.5756 -15.0596 0.0000 42 1 1.0 0 0 0
549 9 -67.2100 -14.7559 0.0000 42 1 1.0 0 0 0
550 8 -65.6010 -14.4176 0.0000 42 1 1.0 0 0 0
551 8 -66.6864 -13.8979 0.0000 42 1 1.0 0 0 0
552 8 -65.2609 -13.4717 0.0000 42 1 1.0 0 0 0
553 8 -66.1628 -13.0398 0.0000 42 1 1.0 0 0 0
554 2 -65.4903 -15.5793 0.0000 42 1 1.0 0 0 0
555 3 -67.6610 -14.5399 0.0000 42 1 1.0 0 0 0
556 4 -65.1501 -14.6335 0.0000 42 1 1.0 0 0 0
557 5 -67.1374 -13.6819 0.0000 42 1 1.0 0 0 0
558 6 -64.8099 -13.6877 0.0000 42 1 1.0 0 0 0
559 7 -66.6138 -12.8239 0.0000 42 1 1.0 0 0 0
560 9 -20.1932 25.2604 0.0000 43 1 1.0 0 0 0
561 9 -19.6795 24.7799 0.0000 43 1 1.0 0 0 0
562 9 -19.1658 24.2994 0.0000 43 1 1.0 0 0 0
563 8 -20.8020 24.4607 0.0000 43 1 1.0 0 0 0
564 8 -19.9232 23.6386 0.0000 43 1 1.0 0 0 0
565 8 -21.4109 23.6609 0.0000 43 1 1.0 0 0 0
566 8 -20.6806 22.9778 0.0000 43 1 1.0 0 0 0
567 2 -20.5583 25.6020 0.0000 43 1 1.0 0 0 0
568 3 -18.8007 23.9578 0.0000 43 1 1.0 0 0 0
569 4 -21.1672 24.8022 0.0000 43 1 1.0 0 0 0
570 5 -19.5581 23.2970 0.0000 43 1 1.0 0 0 0
571 6 -21.7761 24.0025 0.0000 43 1 1.0 0 0 0
572 7 -20.3155 22.6362 0.0000 43 1 1.0 0 0 0
573 9 -50.6739 8.2438 0.0000 44 1 1.0 0 0 0
574 9 -51.2502 7.8406 0.0000 44 1 1.0 0 0 0
575 9 -51.8264 7.4373 0.0000 44 1 1.0 0 0 0
576 8 -51.3306 9.0049 0.0000 44 1 1.0 0 0 0
577 8 -52.3165 8.3149 0.0000 44 1 1.0 0 0 0
578 8 -51.9873 9.7659 0.0000 44 1 1.0 0 0 0
579 8 -52.8066 9.1925 0.0000 44 1 1.0 0 0 0
580 2 -50.2643 8.5305 0.0000 44 1 1.0 0 0 0
581 3 -52.2361 7.1506 0.0000 44 1 1.0 0 0 0
582 4 -50.9209 9.2916 0.0000 44 1 1.0 0 0 0
583 5 -52.7261 8.0282 0.0000 44 1 1.0 0 0 0
584 6 -51.5776 10.0525 0.0000 44 1 1.0 0 0 0
585 7 -53.2162 8.9058 0.0000 44 1 1.0 0 0 0
586 9 72.5078 1.2963 0.0000 45 1 1.0 -1 0 0
587 9 72.9703 1.8263 0.0000 45 1 1.0 -1 0 0
588 9 73.4328 2.3562 0.0000 45 1 1.0 -1 0 0
589 8 73.3281 0.7154 0.0000 45 1 1.0 -1 0 0
590 8 -73.8806 1.6221 0.0000 45 1 1.0 0 0 0
591 8 -73.8516 0.1345 0.0000 45 1 1.0 0 0 0
592 8 -73.1940 0.8879 0.0000 45 1 1.0 0 0 0
593 2 72.1791 0.9196 0.0000 45 1 1.0 -1 0 0
594 3 73.7616 2.7330 0.0000 45 1 1.0 -1 0 0
595 4 72.9994 0.3387 0.0000 45 1 1.0 -1 0 0
596 5 -73.5519 1.9988 0.0000 45 1 1.0 0 0 0
597 6 73.8197 -0.2422 0.0000 45 1 1.0 -1 0 0
598 7 -72.8653 1.2647 0.0000 45 1 1.0 0 0 0
599 9 -55.7340 -19.2306 0.0000 46 1 1.0 0 0 0
600 9 -55.2250 -18.7451 0.0000 46 1 1.0 0 0 0
601 9 -54.7161 -18.2596 0.0000 46 1 1.0 0 0 0
602 8 -54.9702 -19.8840 0.0000 46 1 1.0 0 0 0
603 8 -54.0994 -19.0534 0.0000 46 1 1.0 0 0 0
604 8 -54.2064 -20.5374 0.0000 46 1 1.0 0 0 0
605 8 -53.4828 -19.8472 0.0000 46 1 1.0 0 0 0
606 2 -56.0958 -19.5757 0.0000 46 1 1.0 0 0 0
607 3 -54.3543 -17.9145 0.0000 46 1 1.0 0 0 0
608 4 -55.3320 -20.2291 0.0000 46 1 1.0 0 0 0
609 5 -53.7376 -18.7083 0.0000 46 1 1.0 0 0 0
610 6 -54.5682 -20.8826 0.0000 46 1 1.0 0 0 0
611 7 -53.1210 -19.5021 0.0000 46 1 1.0 0 0 0
612 9 72.1641 -8.7213 0.0000 47 1 1.0 -1 0 0
613 9 71.8073 -8.1152 0.0000 47 1 1.0 -1 0 0
614 9 71.4506 -7.5090 0.0000 47 1 1.0 -1 0 0
615 8 72.9743 -8.1265 0.0000 47 1 1.0 -1 0 0
616 8 72.3640 -7.0894 0.0000 47 1 1.0 -1 0 0
617 8 73.7846 -7.5317 0.0000 47 1 1.0 -1 0 0
618 8 73.2774 -6.6699 0.0000 47 1 1.0 -1 0 0
619 2 72.4177 -9.1522 0.0000 47 1 1.0 -1 0 0
620 3 71.1969 -7.0781 0.0000 47 1 1.0 -1 0 0
621 4 73.2279 -8.5574 0.0000 47 1 1.0 -1 0 0
622 5 72.1104 -6.6585 0.0000 47 1 1.0 -1 0 0
623 6 -73.9618 -7.9626 0.0000 47 1 1.0 0 0 0
624 7 73.0238 -6.2389 0.0000 47 1 1.0 -1 0 0
625 9 50.4653 2.3397 0.0000 48 1 1.0 -1 0 0
626 9 49.8657 2.7073 0.0000 48 1 1.0 -1 0 0
627 9 49.2660 3.0750 0.0000 48 1 1.0 -1 0 0
628 8 50.9013 3.2454 0.0000 48 1 1.0 -1 0 0
629 8 49.8754 3.8744 0.0000 48 1 1.0 -1 0 0
630 8 51.3373 4.1510 0.0000 48 1 1.0 -1 0 0
631 8 50.4848 4.6737 0.0000 48 1 1.0 -1 0 0
632 2 50.8916 2.0783 0.0000 48 1 1.0 -1 0 0
633 3 48.8398 3.3363 0.0000 48 1 1.0 -1 0 0
634 4 51.3276 2.9840 0.0000 48 1 1.0 -1 0 0
635 5 49.4492 4.1357 0.0000 48 1 1.0 -1 0 0
636 6 51.7636 3.8897 0.0000 48 1 1.0 -1 0 0
637 7 50.0586 4.9351 0.0000 48 1 1.0 -1 0 0
638 9 -48.7744 10.2863 0.0000 49 1 1.0 0 0 0
639 9 -49.2382 9.7575 0.0000 49 1 1.0 0 0 0
640 9 -49.7019 9.2286 0.0000 49 1 1.0 0 0 0
641 8 -49.5933 10.8692 0.0000 49 1 1.0 0 0 0
642 8 -50.3867 9.9644 0.0000 49 1 1.0 0 0 0
643 8 -50.4122 11.4520 0.0000 49 1 1.0 0 0 0
644 8 -51.0715 10.7002 0.0000 49 1 1.0 0 0 0
645 2 -48.4447 10.6623 0.0000 49 1 1.0 0 0 0
646 3 -50.0316 8.8527 0.0000 49 1 1.0 0 0 0
647 4 -49.2636 11.2451 0.0000 49 1 1.0 0 0 0
648 5 -50.7164 9.5885 0.0000 49 1 1.0 0 0 0
649 6 -50.0826 11.8280 0.0000 49 1 1.0 0 0 0
650 7 -51.4012 10.3242 0.0000 49 1 1.0 0 0 0
651 9 -59.9926 45.9340 0.0000 50 1 1.0 0 0 0
652 9 -60.0388 45.2321 0.0000 50 1 1.0 0 0 0
653 9 -60.0850 44.5302 0.0000 50 1 1.0 0 0 0
654 8 -60.9972 45.8982 0.0000 50 1 1.0 0 0 0
655 8 -61.0762 44.6974 0.0000 50 1 1.0 0 0 0
656 8 -62.0017 45.8624 0.0000 50 1 1.0 0 0 0
657 8 -62.0673 44.8645 0.0000 50 1 1.0 0 0 0
658 2 -59.9598 46.4329 0.0000 50 1 1.0 0 0 0
659 3 -60.1178 44.0313 0.0000 50 1 1.0 0 0 0