Initial configuration

10400   atoms

7 atom types

-74.0 74.0 xlo xhi 
-74.0 74.0 ylo yhi 
-10.0 10.0 zlo zhi 

Masses

1 1
2 0.1
3 0.1
4 0.1
5 0.1
6 0.1
7 0.1

Atoms # molecular

1 0 1 -40.1736 32.3131 -0.1340
2 0 1 -40.3680 32.9891 -0.1340
3 0 1 -40.5624 33.6651 -0.1340
4 0 1 -39.2407 32.6872 -0.1340
5 0 1 -39.5732 33.8437 -0.1340
6 0 1 -38.3077 33.0613 -0.1340
7 0 1 -38.5841 34.0224 -0.1340
8 0 2 -40.0354 31.8326 -0.1340
9 0 3 -40.7006 34.1456 -0.1340
10 0 4 -39.1025 32.2067 -0.1340
11 0 5 -39.7114 34.3243 -0.1340
12 0 6 -38.1695 32.5808 -0.1340
13 0 7 -38.7223 34.5029 -0.1340
14 1 1 -35.3722 37.8641 -0.1340
15 1 1 -35.5686 38.5395 -0.1340
16 1 1 -35.7651 39.2149 -0.1340
17 1 1 -34.4404 38.2410 -0.1340
18 1 1 -34.7764 39.3965 -0.1340
19 1 1 -33.5086 38.6178 -0.1340
20 1 1 -33.7878 39.5781 -0.1340
21 1 2 -35.2326 37.3840 -0.1340
22 1 3 -35.9047 39.6950 -0.1340
23 1 4 -34.3008 37.7608 -0.1340
24 1 5 -34.9161 39.8766 -0.1340
25 1 6 -33.3690 38.1377 -0.1340
26 1 7 -33.9274 40.0582 -0.1340
27 2 1 69.3495 4.8203 -0.1340
28 2 1 69.9048 5.2521 -0.1340
29 2 1 70.4600 5.6839 -0.1340
30 2 1 70.0437 4.0933 -0.1340
31 2 1 70.9936 4.8321 -0.1340
32 2 1 70.7379 3.3664 -0.1340
33 2 1 71.5273 3.9803 -0.1340
34 2 2 68.9549 4.5133 -0.1340
35 2 3 70.8547 5.9909 -0.1340
36 2 4 69.6490 3.7864 -0.1340
37 2 5 71.3883 5.1391 -0.1340
38 2 6 70.3432 3.0594 -0.1340
39 2 7 71.9220 4.2873 -0.1340
40 3 1 15.5105 61.5570 -0.1340
41 3 1 15.9357 60.9967 -0.1340
42 3 1 16.3609 60.4364 -0.1340
43 3 1 14.7754 60.8715 -0.1340
44 3 1 15.5029 59.9129 -0.1340
45 3 1 14.0403 60.1860 -0.1340
46 3 1 14.6448 59.3894 -0.1340
47 3 2 15.2082 61.9553 -0.1340
48 3 3 16.6632 60.0381 -0.1340
49 3 4 14.4731 61.2698 -0.1340
50 3 5 15.8051 59.5146 -0.1340
51 3 6 13.7380 60.5843 -0.1340
52 3 7 14.9471 58.9911 -0.1340
53 4 1 4.8629 -52.7676 -0.1340
54 4 1 4.3237 -52.3159 -0.1340
55 4 1 3.7845 -51.8643 -0.1340
56 4 1 5.4271 -51.9357 -0.1340
57 4 1 4.5046 -51.1629 -0.1340
58 4 1 5.9912 -51.1038 -0.1340
59 4 1 5.2246 -50.4616 -0.1340
60 4 2 5.2462 -53.0886 -0.1340
61 4 3 3.4012 -51.5432 -0.1340
62 4 4 5.8104 -52.2567 -0.1340
63 4 5 4.1213 -50.8419 -0.1340
64 4 6 6.3745 -51.4248 -0.1340
65 4 7 4.8413 -50.1406 -0.1340
66 5 1 53.3579 21.5861 -0.1340
67 5 1 53.4889 20.8950 -0.1340
68 5 1 53.6199 20.2039 -0.1340
69 5 1 52.3944 21.2999 -0.1340
70 5 1 52.6185 20.1176 -0.1340
71 5 1 51.4308 21.0137 -0.1340
72 5 1 51.6171 20.0312 -0.1340
73 5 2 53.2648 22.0773 -0.1340
74 5 3 53.7131 19.7127 -0.1340
75 5 4 52.3012 21.7911 -0.1340
76 5 5 52.7116 19.6263 -0.1340
77 5 6 51.3377 21.5050 -0.1340
78 5 7 51.7102 19.5400 -0.1340
79 6 1 43.6736 9.9286 -0.1340
80 6 1 44.2304 9.4988 -0.1340
81 6 1 44.7872 9.0690 -0.1340
82 6 1 43.1430 9.0749 -0.1340
83 6 1 44.0956 8.3396 -0.1340
84 6 1 42.6125 8.2211 -0.1340
85 6 1 43.4041 7.6101 -0.1340
86 6 2 43.2778 10.2341 -0.1340
87 6 3 45.1830 8.7635 -0.1340
88 6 4 42.7472 9.3804 -0.1340
89 6 5 44.4914 8.0340 -0.1340
90 6 6 42.2167 8.5267 -0.1340
91 6 7 43.7999 7.3046 -0.1340
92 7 1 -33.7467 0.6976 -0.1340
93 7 1 -34.4191 0.9040 -0.1340
94 7 1 -35.0915 1.1104 -0.1340
95 7 1 -33.5504 1.6834 -0.1340
96 7 1 -34.7008 2.0365 -0.1340
97 7 1 -33.3542 2.6692 -0.1340
98 7 1 -34.3102 2.9626 -0.1340
99 7 2 -33.2687 0.5508 -0.1340
100 7 3 -35.5695 1.2571 -0.1340
101 7 4 -33.0724 1.5367 -0.1340
102 7 5 -35.1788 2.1832 -0.1340
103 7 6 -32.8762 2.5225 -0.1340
104 7 7 -34.7882 3.1094 -0.1340
105 8 1 57.2486 22.4741 -0.1340
106 8 1 57.1013 23.1619 -0.1340
107 8 1 56.9540 23.8497 -0.1340
108 8 1 58.2051 22.7829 -0.1340
109 8 1 57.9531 23.9596 -0.1340
110 8 1 59.1617 23.0918 -0.1340
111 8 1 58.9523 24.0696 -0.1340
112 8 2 57.3533 21.9852 -0.1340
113 8 3 56.8493 24.3386 -0.1340
114 8 4 58.3099 22.2940 -0.1340
115 8 5 57.8484 24.4486 -0.1340
116 8 6 59.2664 22.6029 -0.1340
117 8 7 58.8476 24.5585 -0.1340
118 9 1 -15.7318 -60.1711 -0.1340
119 9 1 -16.1894 -59.6369 -0.1340
120 9 1 -16.6471 -59.1028 -0.1340
121 9 1 -15.0386 -59.4432 -0.1340
122 9 1 -15.8215 -58.5294 -0.1340
123 9 1 -14.3453 -58.7154 -0.1340
124 9 1 -14.9960 -57.9560 -0.1340
125 9 2 -15.4065 -60.5508 -0.1340
126 9 3 -16.9724 -58.7231 -0.1340
127 9 4 -14.7132 -59.8229 -0.1340
128 9 5 -16.1468 -58.1497 -0.1340
129 9 6 -14.0200 -59.0951 -0.1340
130 9 7 -15.3213 -57.5763 -0.1340
131 10 1 46.4453 -70.0827 -0.1340
132 10 1 46.3853 -70.7835 -0.1340
133 10 1 46.3253 -71.4843 -0.1340
134 10 1 45.4402 -70.0987 -0.1340
135 10 1 45.3376 -71.2977 -0.1340
136 10 1 44.4352 -70.1147 -0.1340
137 10 1 44.3499 -71.1111 -0.1340
138 10 2 46.4879 -69.5845 -0.1340
139 10 3 46.2826 -71.9825 -0.1340
140 10 4 45.4829 -69.6005 -0.1340
141 10 5 45.2949 -71.7959 -0.1340
142 10 6 44.4779 -69.6165 -0.1340
143 10 7 44.3072 -71.6092 -0.1340
144 11 1 58.7542 -25.1449 -0.1340
145 11 1 58.4675 -24.5026 -0.1340
146 11 1 58.1808 -23.8603 -0.1340
147 11 1 59.6259 -24.6444 -0.1340
148 11 1 59.1354 -23.5455 -0.1340
149 11 1 60.4976 -24.1439 -0.1340
150 11 1 60.0900 -23.2308 -0.1340
151 11 2 58.9580 -25.6015 -0.1340
152 11 3 57.9770 -23.4037 -0.1340
153 11 4 59.8297 -25.1010 -0.1340
154 11 5 58.9316 -23.0890 -0.1340
155 11 6 60.7014 -24.6005 -0.1340
156 11 7 59.8862 -22.7742 -0.1340
157 12 1 40.6489 44.4185 -0.1340
158 12 1 41.0349 43.8306 -0.1340
159 12 1 41.4210 43.2426 -0.1340
160 12 1 39.8688 43.7847 -0.1340
161 12 1 40.5292 42.7788 -0.1340
162 12 1 39.0886 43.1509 -0.1340
163 12 1 39.6375 42.3150 -0.1340
164 12 2 40.3745 44.8365 -0.1340
165 12 3 41.6954 42.8246 -0.1340
166 12 4 39.5944 44.2027 -0.1340
167 12 5 40.8036 42.3608 -0.1340
168 12 6 38.8142 43.5689 -0.1340
169 12 7 39.9119 41.8970 -0.1340
170 13 1 70.5766 -8.6446 -0.1340
171 13 1 69.8816 -8.5362 -0.1340
172 13 1 69.1866 -8.4279 -0.1340
173 13 1 70.6301 -7.6408 -0.1340
174 13 1 69.4411 -7.4555 -0.1340
175 13 1 70.6837 -6.6371 -0.1340
176 13 1 69.6956 -6.4831 -0.1340
177 13 2 71.0706 -8.7216 -0.1340
178 13 3 68.6926 -8.3509 -0.1340
179 13 4 71.1241 -7.7178 -0.1340
180 13 5 68.9471 -7.3785 -0.1340
181 13 6 71.1777 -6.7141 -0.1340
182 13 7 69.2016 -6.4061 -0.1340
183 14 1 70.6403 38.4157 -0.1340
184 14 1 70.6972 37.7146 -0.1340
185 14 1 70.7542 37.0136 -0.1340
186 14 1 69.6518 38.2334 -0.1340
187 14 1 69.7493 37.0339 -0.1340
188 14 1 68.6633 38.0510 -0.1340
189 14 1 68.7443 37.0543 -0.1340
190 14 2 70.5998 38.9141 -0.1340
191 14 3 70.7947 36.5152 -0.1340
192 14 4 69.6113 38.7317 -0.1340
193 14 5 69.7897 36.5356 -0.1340
194 14 6 68.6228 38.5494 -0.1340
195 14 7 68.7848 36.5560 -0.1340
196 15 1 -8.6051 54.5284 -0.1340
197 15 1 -8.6137 55.2318 -0.1340
198 15 1 -8.6224 55.9351 -0.1340
199 15 1 -7.6065 54.6423 -0.1340
200 15 1 -7.6212 55.8456 -0.1340
201 15 1 -6.6078 54.7563 -0.1340
202 15 1 -6.6200 55.7562 -0.1340
203 15 2 -8.5990 54.0285 -0.1340
204 15 3 -8.6285 56.4351 -0.1340
205 15 4 -7.6003 54.1424 -0.1340
206 15 5 -7.6273 56.3456 -0.1340
207 15 6 -6.6017 54.2563 -0.1340
208 15 7 -6.6261 56.2561 -0.1340
209 16 1 -13.4281 -32.8165 -0.1340
210 16 1 -14.1167 -32.6733 -0.1340
211 16 1 -14.8054 -32.5301 -0.1340
212 16 1 -13.3240 -31.8168 -0.1340
213 16 1 -14.5022 -31.5717 -0.1340
214 16 1 -13.2199 -30.8170 -0.1340
215 16 1 -14.1990 -30.6134 -0.1340
216 16 2 -12.9385 -32.9184 -0.1340
217 16 3 -15.2949 -32.4283 -0.1340
218 16 4 -12.8345 -31.9186 -0.1340
219 16 5 -14.9917 -31.4699 -0.1340
220 16 6 -12.7304 -30.9189 -0.1340
221 16 7 -14.6885 -30.5116 -0.1340
222 17 1 -17.4677 22.5738 -0.1340
223 17 1 -16.8425 22.8961 -0.1340
224 17 1 -16.2174 23.2185 -0.1340
225 17 1 -16.9190 21.7316 -0.1340
226 17 1 -15.8494 22.2831 -0.1340
227 17 1 -16.3703 20.8894 -0.1340
228 17 1 -15.4815 21.3477 -0.1340
229 17 2 -17.9121 22.3446 -0.1340
230 17 3 -15.7730 23.4476 -0.1340
231 17 4 -17.3634 21.5024 -0.1340
232 17 5 -15.4050 22.5122 -0.1340
233 17 6 -16.8147 20.6602 -0.1340
234 17 7 -15.0371 21.5768 -0.1340
235 18 1 27.8238 -17.9029 -0.1340
236 18 1 28.5090 -18.0621 -0.1340
237 18 1 29.1941 -18.2212 -0.1340
238 18 1 27.6966 -18.9000 -0.1340
239 18 1 28.8688 -19.1723 -0.1340
240 18 1 27.5694 -19.8971 -0.1340
241 18 1 28.5435 -20.1233 -0.1340
242 18 2 27.3368 -17.7898 -0.1340
243 18 3 29.6812 -18.3343 -0.1340
244 18 4 27.2096 -18.7869 -0.1340
245 18 5 29.3558 -19.2854 -0.1340
246 18 6 27.0824 -19.7840 -0.1340
247 18 7 29.0305 -20.2365 -0.1340
248 19 1 -51.2536 31.7816 -0.1340
249 19 1 -51.9567 31.7614 -0.1340
250 19 1 -52.6598 31.7412 -0.1340
251 19 1 -51.3840 32.7783 -0.1340
252 19 1 -52.5869 32.7437 -0.1340
253 19 1 -51.5144 33.7750 -0.1340
254 19 1 -52.5140 33.7462 -0.1340
255 19 2 -50.7538 31.7960 -0.1340
256 19 3 -53.1596 31.7268 -0.1340
257 19 4 -50.8842 32.7927 -0.1340
258 19 5 -53.0867 32.7293 -0.1340
259 19 6 -51.0146 33.7893 -0.1340
260 19 7 -53.0138 33.7318 -0.1340
261 20 1 68.0548 -18.9176 -0.1340
262 20 1 68.7312 -18.7245 -0.1340
263 20 1 69.4076 -18.5315 -0.1340
264 20 1 68.4271 -19.8513 -0.1340
265 20 1 69.5843 -19.5210 -0.1340
266 20 1 68.7994 -20.7850 -0.1340
267 20 1 69.7610 -20.5105 -0.1340
268 20 2 67.5740 -19.0548 -0.1340
269 20 3 69.8884 -18.3942 -0.1340
270 20 4 67.9463 -19.9885 -0.1340
271 20 5 70.0651 -19.3837 -0.1340
272 20 6 68.3186 -20.9222 -0.1340
273 20 7 70.2418 -20.3732 -0.1340
274 21 1 60.8963 33.8234 -0.1340
275 21 1 61.1140 34.4922 -0.1340
276 21 1 61.3318 35.1610 -0.1340
277 21 1 61.8786 33.6105 -0.1340
278 21 1 62.2512 34.7548 -0.1340
279 21 1 62.8610 33.3976 -0.1340
280 21 1 63.1706 34.3485 -0.1340
281 21 2 60.7415 33.3479 -0.1340
282 21 3 61.4865 35.6365 -0.1340
283 21 4 61.7239 33.1351 -0.1340
284 21 5 62.4059 35.2302 -0.1340
285 21 6 62.7062 32.9222 -0.1340
286 21 7 63.3253 34.8240 -0.1340
287 22 1 -18.2823 55.7244 -0.1340
288 22 1 -17.5790 55.7111 -0.1340
289 22 1 -16.8757 55.6978 -0.1340
290 22 1 -18.1995 54.7226 -0.1340
291 22 1 -16.9963 54.6999 -0.1340
292 22 1 -18.1167 53.7209 -0.1340
293 22 1 -17.1168 53.7020 -0.1340
294 22 2 -18.7822 55.7338 -0.1340
295 22 3 -16.3758 55.6884 -0.1340
296 22 4 -18.6994 54.7321 -0.1340
297 22 5 -16.4964 54.6905 -0.1340
298 22 6 -18.6166 53.7303 -0.1340
299 22 7 -16.6169 53.6926 -0.1340
300 23 1 70.3334 67.2244 -0.1340
301 23 1 69.6308 67.2568 -0.1340
302 23 1 68.9282 67.2892 -0.1340
303 23 1 70.2779 68.2280 -0.1340
304 23 1 69.0758 68.2835 -0.1340
305 23 1 70.2224 69.2316 -0.1340
306 23 1 69.2235 69.2777 -0.1340
307 23 2 70.8329 67.2014 -0.1340
308 23 3 68.4287 67.3122 -0.1340
309 23 4 70.7774 68.2050 -0.1340
310 23 5 68.5764 68.3065 -0.1340
311 23 6 70.7219 69.2086 -0.1340
312 23 7 68.7240 69.3007 -0.1340
313 24 1 -2.0639 45.9929 -0.1340
314 24 1 -1.7377 46.6160 -0.1340
315 24 1 -1.4114 47.2392 -0.1340
316 24 1 -1.1308 45.6192 -0.1340
317 24 1 -0.5727 46.6853 -0.1340
318 24 1 -0.1977 45.2455 -0.1340
319 24 1 0.2661 46.1314 -0.1340
320 24 2 -2.2958 45.5499 -0.1340
321 24 3 -1.1796 47.6821 -0.1340
322 24 4 -1.3627 45.1762 -0.1340
323 24 5 -0.3408 47.1283 -0.1340
324 24 6 -0.4296 44.8025 -0.1340
325 24 7 0.4980 46.5744 -0.1340
326 25 1 -69.0806 -20.2695 -0.1340
327 25 1 -69.0387 -19.5673 -0.1340
328 25 1 -68.9967 -18.8652 -0.1340
329 25 1 -68.0763 -20.2276 -0.1340
330 25 1 -68.0046 -19.0263 -0.1340
331 25 1 -67.0721 -20.1857 -0.1340
332 25 1 -67.0124 -19.1875 -0.1340
333 25 2 -69.1104 -20.7686 -0.1340
334 25 3 -68.9669 -18.3661 -0.1340
335 25 4 -68.1062 -20.7267 -0.1340
336 25 5 -67.9747 -18.5272 -0.1340
337 25 6 -67.1019 -20.6848 -0.1340
338 25 7 -66.9826 -18.6884 -0.1340
339 26 1 57.6944 8.7477 -0.1340
340 26 1 57.8645 8.0652 -0.1340
341 26 1 58.0345 7.3827 -0.1340
342 26 1 56.7487 8.4073 -0.1340
343 26 1 57.0396 7.2396 -0.1340
344 26 1 55.8029 8.0669 -0.1340
345 26 1 56.0446 7.0965 -0.1340
346 26 2 57.5736 9.2329 -0.1340
347 26 3 58.1554 6.8975 -0.1340
348 26 4 56.6278 8.8925 -0.1340
349 26 5 57.1604 6.7544 -0.1340
350 26 6 55.6820 8.5520 -0.1340
351 26 7 56.1655 6.6114 -0.1340
352 27 1 17.9953 25.1529 -0.1340
353 27 1 17.3521 24.8682 -0.1340
354 27 1 16.7089 24.5835 -0.1340
355 27 1 17.4975 26.0262 -0.1340
356 27 1 16.3971 25.5391 -0.1340
357 27 1 16.9998 26.8995 -0.1340
358 27 1 16.0854 26.4947 -0.1340
359 27 2 18.4525 25.3553 -0.1340
360 27 3 16.2517 24.3812 -0.1340
361 27 4 17.9548 26.2286 -0.1340
362 27 5 15.9399 25.3368 -0.1340
363 27 6 17.4570 27.1018 -0.1340
364 27 7 15.6282 26.2924 -0.1340
365 28 1 -70.8391 41.1302 -0.1340
366 28 1 -71.3959 40.7004 -0.1340
367 28 1 -71.9527 40.2707 -0.1340
368 28 1 -71.5305 41.8597 -0.1340
369 28 1 -72.4832 41.1245 -0.1340
370 28 1 -72.2220 42.5892 -0.1340
371 28 1 -73.0137 41.9782 -0.1340
372 28 2 -70.4432 41.4357 -0.1340
373 28 3 -72.3485 39.9652 -0.1340
374 28 4 -71.1347 42.1652 -0.1340
375 28 5 -72.8790 40.8190 -0.1340
376 28 6 -71.8262 42.8947 -0.1340
377 28 7 -73.4095 41.6727 -0.1340
378 29 1 -65.0374 58.0660 -0.1340
379 29 1 -64.4300 58.4208 -0.1340
380 29 1 -63.8227 58.7755 -0.1340
381 29 1 -64.4452 57.2538 -0.1340
382 29 1 -63.4061 57.8608 -0.1340
383 29 1 -63.8530 56.4416 -0.1340
384 29 1 -62.9895 56.9460 -0.1340
385 29 2 -65.4691 57.8138 -0.1340
386 29 3 -63.3909 59.0277 -0.1340
387 29 4 -64.8769 57.0016 -0.1340
388 29 5 -62.9743 58.1130 -0.1340
389 29 6 -64.2847 56.1894 -0.1340
390 29 7 -62.5578 57.1982 -0.1340
391 30 1 -51.6217 18.7725 -0.1340
392 30 1 -52.3224 18.8335 -0.1340
393 30 1 -53.0232 18.8944 -0.1340
394 30 1 -51.6364 19.7776 -0.1340
395 30 1 -52.8352 19.8818 -0.1340
396 30 1 -51.6511 20.7826 -0.1340
397 30 1 -52.6473 20.8693 -0.1340
398 30 2 -51.1236 18.7292 -0.1340
399 30 3 -53.5213 18.9377 -0.1340
400 30 4 -51.1383 19.7343 -0.1340
401 30 5 -53.3334 19.9252 -0.1340
402 30 6 -51.1529 20.7393 -0.1340
403 30 7 -53.1454 20.9126 -0.1340
404 31 1 -19.9460 -0.7829 -0.1340
405 31 1 -20.5504 -0.4230 -0.1340
406 31 1 -21.1547 -0.0632 -0.1340
407 31 1 -19.5218 0.1284 -0.1340
408 31 1 -20.5557 0.7440 -0.1340
409 31 1 -19.0975 1.0396 -0.1340
410 31 1 -19.9568 1.5512 -0.1340
411 31 2 -19.5164 -1.0387 -0.1340
412 31 3 -21.5843 0.1927 -0.1340
413 31 4 -19.0922 -0.1275 -0.1340
414 31 5 -20.9853 0.9998 -0.1340
415 31 6 -18.6679 0.7838 -0.1340
416 31 7 -20.3864 1.8070 -0.1340
417 32 1 -25.4410 27.8824 -0.1340
418 32 1 -25.1717 27.2326 -0.1340
419 32 1 -24.9023 26.5829 -0.1340
420 32 1 -26.3258 27.4055 -0.1340
421 32 1 -25.8650 26.2939 -0.1340
422 32 1 -27.2107 26.9286 -0.1340
423 32 1 -26.8277 26.0049 -0.1340
424 32 2 -25.6325 28.3443 -0.1340
425 32 3 -24.7108 26.1210 -0.1340
426 32 4 -26.5173 27.8674 -0.1340
427 32 5 -25.6736 25.8320 -0.1340
428 32 6 -27.4021 27.3905 -0.1340
429 32 7 -26.6363 25.5430 -0.1340
430 33 1 -25.4535 49.3709 -0.1340
431 33 1 -25.3179 50.0611 -0.1340
432 33 1 -25.1822 50.7513 -0.1340
433 33 1 -24.4527 49.2778 -0.1340
434 33 1 -24.2206 50.4586 -0.1340
435 33 1 -23.4519 49.1848 -0.1340
436 33 1 -23.2590 50.1660 -0.1340
437 33 2 -25.5500 48.8803 -0.1340
438 33 3 -25.0858 51.2419 -0.1340
439 33 4 -24.5491 48.7872 -0.1340
440 33 5 -24.1242 50.9492 -0.1340
441 33 6 -23.5483 48.6942 -0.1340
442 33 7 -23.1626 50.6566 -0.1340
443 34 1 -35.6592 7.5332 -0.1340
444 34 1 -35.0183 7.2433 -0.1340
445 34 1 -34.3774 6.9535 -0.1340
446 34 1 -35.9786 6.5801 -0.1340
447 34 1 -34.8821 6.0842 -0.1340
448 34 1 -36.2980 5.6270 -0.1340
449 34 1 -35.3868 5.2150 -0.1340
450 34 2 -36.1147 7.7392 -0.1340
451 34 3 -33.9218 6.7475 -0.1340
452 34 4 -36.4341 6.7861 -0.1340
453 34 5 -34.4265 5.8782 -0.1340
454 34 6 -36.7536 5.8331 -0.1340
455 34 7 -34.9312 5.0089 -0.1340
456 35 1 36.6459 -37.7897 -0.1340
457 35 1 36.9229 -37.1432 -0.1340
458 35 1 37.1998 -36.4966 -0.1340
459 35 1 37.6051 -38.0900 -0.1340
460 35 1 38.0790 -36.9839 -0.1340
461 35 1 38.5644 -38.3903 -0.1340
462 35 1 38.9582 -37.4711 -0.1340
463 35 2 36.4490 -38.2493 -0.1340
464 35 3 37.3967 -36.0370 -0.1340
465 35 4 37.4082 -38.5496 -0.1340
466 35 5 38.2759 -36.5243 -0.1340
467 35 6 38.3675 -38.8499 -0.1340
468 35 7 39.1550 -37.0115 -0.1340
469 36 1 26.7937 18.4802 -0.1340
470 36 1 26.8370 17.7782 -0.1340
471 36 1 26.8804 17.0761 -0.1340
472 36 1 25.8019 18.3171 -0.1340
473 36 1 25.8760 17.1160 -0.1340
474 36 1 24.8100 18.1540 -0.1340
475 36 1 24.8716 17.1559 -0.1340
476 36 2 26.7629 18.9793 -0.1340
477 36 3 26.9112 16.5771 -0.1340
478 36 4 25.7710 18.8162 -0.1340
479 36 5 25.9068 16.6170 -0.1340
480 36 6 24.7792 18.6531 -0.1340
481 36 7 24.9024 16.6569 -0.1340
482 37 1 71.3746 -37.1014 -0.1340
483 37 1 71.1793 -37.7772 -0.1340
484 37 1 70.9840 -38.4529 -0.1340
485 37 1 70.3856 -36.9215 -0.1340
486 37 1 70.0515 -38.0776 -0.1340
487 37 1 69.3967 -36.7415 -0.1340
488 37 1 69.1191 -37.7022 -0.1340
489 37 2 71.5134 -36.6211 -0.1340
490 37 3 70.8452 -38.9332 -0.1340
491 37 4 70.5245 -36.4411 -0.1340
492 37 5 69.9127 -38.5579 -0.1340
493 37 6 69.5355 -36.2612 -0.1340
494 37 7 68.9803 -38.1826 -0.1340
495 38 1 7.8151 -22.1972 -0.1340
496 38 1 8.3183 -22.6886 -0.1340
497 38 1 8.8215 -23.1800 -0.1340
498 38 1 7.1892 -22.9837 -0.1340
499 38 1 8.0501 -23.8244 -0.1340
500 38 1 6.5632 -23.7701 -0.1340
501 38 1 7.2787 -24.4688 -0.1340
502 38 2 7.4574 -21.8478 -0.1340
503 38 3 9.1793 -23.5294 -0.1340
504 38 4 6.8315 -22.6343 -0.1340
505 38 5 8.4078 -24.1738 -0.1340
506 38 6 6.2055 -23.4208 -0.1340
507 38 7 7.6364 -24.8182 -0.1340
508 39 1 27.1048 60.2986 -0.1340
509 39 1 26.8732 60.9628 -0.1340
510 39 1 26.6415 61.6269 -0.1340
511 39 1 28.0155 60.7239 -0.1340
512 39 1 27.6193 61.8602 -0.1340
513 39 1 28.9263 61.1492 -0.1340
514 39 1 28.5970 62.0935 -0.1340
515 39 2 27.2694 59.8265 -0.1340
516 39 3 26.4769 62.0990 -0.1340
517 39 4 28.1802 60.2518 -0.1340
518 39 5 27.4546 62.3323 -0.1340
519 39 6 29.0909 60.6771 -0.1340
520 39 7 28.4323 62.5656 -0.1340
521 40 1 -47.9778 33.5142 -0.1340
522 40 1 -48.4939 33.9921 -0.1340
523 40 1 -49.0101 34.4699 -0.1340
524 40 1 -47.3730 34.3171 -0.1340
525 40 1 -48.2561 35.1346 -0.1340
526 40 1 -46.7683 35.1200 -0.1340
527 40 1 -47.5021 35.7994 -0.1340
528 40 2 -47.6109 33.1745 -0.1340
529 40 3 -49.3770 34.8096 -0.1340
530 40 4 -47.0061 33.9774 -0.1340
531 40 5 -48.6230 35.4743 -0.1340
532 40 6 -46.4014 34.7803 -0.1340
533 40 7 -47.8690 36.1390 -0.1340
534 41 1 48.3853 27.7619 -0.1340
535 41 1 48.0345 27.1522 -0.1340
536 41 1 47.6838 26.5426 -0.1340
537 41 1 47.4678 28.1725 -0.1340
538 41 1 46.8677 27.1294 -0.1340
539 41 1 46.5503 28.5830 -0.1340
540 41 1 46.0516 27.7162 -0.1340
541 41 2 48.6347 28.1953 -0.1340
542 41 3 47.4344 26.1092 -0.1340
543 41 4 47.7172 28.6058 -0.1340
544 41 5 46.6184 26.6960 -0.1340
545 41 6 46.7997 29.0164 -0.1340
546 41 7 45.8023 27.2828 -0.1340
547 42 1 -12.4783 -58.6694 -0.1340
548 42 1 -11.9618 -59.1468 -0.1340
549 42 1 -11.4453 -59.6243 -0.1340
550 42 1 -13.0824 -59.4727 -0.1340
551 42 1 -12.1988 -60.2896 -0.1340
552 42 1 -13.6866 -60.2761 -0.1340
553 42 1 -12.9523 -60.9549 -0.1340
554 42 2 -12.8455 -58.3300 -0.1340
555 42 3 -11.0782 -59.9637 -0.1340
556 42 4 -13.4496 -59.1333 -0.1340
557 42 5 -11.8316 -60.6290 -0.1340
558 42 6 -14.0537 -59.9366 -0.1340
559 42 7 -12.5851 -61.2943 -0.1340
560 43 1 54.8493 -18.4529 -0.1340
561 43 1 55.2045 -17.8457 -0.1340
562 43 1 55.5597 -17.2386 -0.1340
563 43 1 55.7638 -18.8701 -0.1340
564 43 1 56.3715 -17.8314 -0.1340
565 43 1 56.6783 -19.2873 -0.1340
566 43 1 57.1833 -18.4241 -0.1340
567 43 2 54.5969 -18.8844 -0.1340
568 43 3 55.8122 -16.8071 -0.1340
569 43 4 55.5113 -19.3016 -0.1340
570 43 5 56.6240 -17.3998 -0.1340
571 43 6 56.4258 -19.7188 -0.1340
572 43 7 57.4358 -17.9926 -0.1340
573 44 1 5.8640 -8.1836 -0.1340
574 44 1 5.8768 -8.8869 -0.1340
575 44 1 5.8896 -9.5901 -0.1340
576 44 1 4.8660 -8.3035 -0.1340
577 44 1 4.8879 -9.5067 -0.1340
578 44 1 3.8680 -8.4234 -0.1340
579 44 1 3.8862 -9.4232 -0.1340
580 44 2 5.8549 -7.6837 -0.1340
581 44 3 5.8987 -10.0900 -0.1340
582 44 4 4.8569 -7.8036 -0.1340
583 44 5 4.8970 -10.0066 -0.1340
584 44 6 3.8589 -7.9235 -0.1340
585 44 7 3.8953 -9.9231 -0.1340
586 45 1 -17.0691 -7.7082 -0.1340
587 45 1 -16.3660 -7.6880 -0.1340
588 45 1 -15.6630 -7.6679 -0.1340
589 45 1 -16.9389 -8.7048 -0.1340
590 45 1 -15.7360 -8.6704 -0.1340
591 45 1 -16.8086 -9.7015 -0.1340
592 45 1 -15.8091 -9.6729 -0.1340
593 45 2 -17.5689 -7.7225 -0.1340
594 45 3 -15.1632 -7.6536 -0.1340
595 45 4 -17.4387 -8.7191 -0.1340
596 45 5 -15.2362 -8.6561 -0.1340
597 45 6 -17.3084 -9.7158 -0.1340
598 45 7 -15.3093 -9.6586 -0.1340
599 46 1 -70.9183 -65.5658 -0.1340
600 46 1 -70.2151 -65.5805 -0.1340
601 46 1 -69.5119 -65.5952 -0.1340
602 46 1 -70.8376 -66.5677 -0.1340
603 46 1 -69.6345 -66.5929 -0.1340
604 46 1 -70.7569 -67.5696 -0.1340
605 46 1 -69.7571 -67.5905 -0.1340
606 46 2 -71.4182 -65.5553 -0.1340
607 46 3 -69.0120 -65.6057 -0.1340
608 46 4 -71.3375 -66.5572 -0.1340
609 46 5 -69.1346 -66.6034 -0.1340
610 46 6 -71.2568 -67.5591 -0.1340
611 46 7 -69.2572 -67.6010 -0.1340
612 47 1 -60.0142 -69.0044 -0.1340
613 47 1 -60.1585 -69.6929 -0.1340
614 47 1 -60.3028 -70.3813 -0.1340
615 47 1 -61.0137 -68.8988 -0.1340
616 47 1 -61.2606 -70.0766 -0.1340
617 47 1 -62.0133 -68.7932 -0.1340
618 47 1 -62.2185 -69.7719 -0.1340
619 47 2 -59.9116 -68.5151 -0.1340
620 47 3 -60.4053 -70.8706 -0.1340
621 47 4 -60.9112 -68.4094 -0.1340
622 47 5 -61.3632 -70.5660 -0.1340
623 47 6 -61.9108 -68.3038 -0.1340
624 47 7 -62.3211 -70.2613 -0.1340
625 48 1 -49.4494 -39.9864 -0.1340
626 48 1 -48.9816 -39.4611 -0.1340
627 48 1 -48.5139 -38.9358 -0.1340
628 48 1 -48.6349 -40.5755 -0.1340
629 48 1 -47.8347 -39.6768 -0.1340
630 48 1 -47.8205 -41.1646 -0.1340
631 48 1 -47.1554 -40.4177 -0.1340
632 48 2 -49.7819 -40.3599 -0.1340
633 48 3 -48.1814 -38.5624 -0.1340
634 48 4 -48.9674 -40.9489 -0.1340
635 48 5 -47.5022 -39.3034 -0.1340
636 48 6 -48.1530 -41.5380 -0.1340
637 48 7 -46.8229 -40.0443 -0.1340
638 49 1 -43.0476 -36.5578 -0.1340
639 49 1 -42.5780 -36.0341 -0.1340
640 49 1 -42.1085 -35.5104 -0.1340
641 49 1 -42.2352 -37.1497 -0.1340
642 49 1 -41.4318 -36.2537 -0.1340
643 49 1 -41.4228 -37.7416 -0.1340
644 49 1 -40.7552 -36.9970 -0.1340
645 49 2 -43.3814 -36.9301 -0.1340
646 49 3 -41.7747 -35.1382 -0.1340
647 49 4 -42.5690 -37.5219 -0.1340
648 49 5 -41.0980 -35.8815 -0.1340
649 49 6 -41.7566 -38.1138 -0.1340
650 49 7 -40.4214 -36.6248 -0.1340
651 50 1 2.9949 -65.1434 -0.1340
652 50 1 3.5301 -65.5998 -0.1340
653 50 1 4.0653 -66.0562 -0.1340
654 50 1 2.4234 -65.9703 -0.1340
655 50 1 3.3390 -66.7511 -0.1340
656 50 1 1.8519 -66.7971 -0.1340
657 50 1 2.6128 -67.4460 -0.1340
658 50 2 2.6145 -64.8189 -0.1340
659 50 3 4.4458 -66.3807 -0.1340
660 50 4 2.0430 -65.6458 -0.1340
661 50 5 3.7195 -67.0756 -0.1340
662 50 6 1.4715 -66.4727 -0.1340
663 50 7 2.9932 -67.7705 -0.1340
664 51 1 -4.0042 35.2498 -0.1340
665 51 1 -4.2457 35.9105 -0.1340
666 51 1 -4.4871 36.5711 -0.1340
667 51 1 -3.0999 35.6886 -0.1340
668 51 1 -3.5129 36.8188 -0.1340
669 51 1 -2.1955 36.1273 -0.1340
670 51 1 -2.5387 37.0665 -0.1340
671 51 2 -3.8326 34.7802 -0.1340
672 51 3 -4.6587 37.0408 -0.1340
673 51 4 -2.9283 35.2189 -0.1340
674 51 5 -3.6845 37.2885 -0.1340
675 51 6 -2.0239 35.6577 -0.1340
676 51 7 -2.7104 37.5362 -0.1340
677 52 1 57.0534 34.2828 -0.1340
678 52 1 57.6350 34.6784 -0.1340
679 52 1 58.2165 35.0740 -0.1340
680 52 1 57.6999 33.5132 -0.1340
681 52 1 58.6949 34.1900 -0.1340
682 52 1 58.3464 32.7435 -0.1340
683 52 1 59.1733 33.3060 -0.1340
684 52 2 56.6400 34.0016 -0.1340
685 52 3 58.6300 35.3552 -0.1340
686 52 4 57.2865 33.2319 -0.1340
687 52 5 59.1083 34.4712 -0.1340
688 52 6 57.9330 32.4623 -0.1340
689 52 7 59.5867 33.5872 -0.1340
690 53 1 10.0724 31.6876 -0.1340
691 53 1 9.3717 31.6267 -0.1340
692 53 1 8.6709 31.5658 -0.1340
693 53 1 9.8845 32.6750 -0.1340
694 53 1 8.6857 32.5709 -0.1340
695 53 1 9.6967 33.6625 -0.1340
696 53 1 8.7004 33.5759 -0.1340
697 53 2 10.5705 31.7309 -0.1340
698 53 3 8.1728 31.5225 -0.1340
699 53 4 10.3827 32.7183 -0.1340
700 53 5 8.1875 32.5276 -0.1340
701 53 6 10.1948 33.7058 -0.1340
702 53 7 8.2023 33.5326 -0.1340
703 54 1 -62.6703 -52.2489 -0.1340
704 54 1 -61.9669 -52.2530 -0.1340
705 54 1 -61.2636 -52.2571 -0.1340
706 54 1 -62.5744 -53.2495 -0.1340
707 54 1 -61.3711 -53.2565 -0.1340
708 54 1 -62.4786 -54.2501 -0.1340
709 54 1 -61.4786 -54.2559 -0.1340
710 54 2 -63.1703 -52.2460 -0.1340
711 54 3 -60.7636 -52.2600 -0.1340
712 54 4 -63.0744 -53.2466 -0.1340
713 54 5 -60.8711 -53.2594 -0.1340
714 54 6 -62.9786 -54.2471 -0.1340
715 54 7 -60.9786 -54.2588 -0.1340
716 55 1 69.7636 33.5146 -0.1340
717 55 1 69.2110 33.0795 -0.1340
718 55 1 68.6583 32.6444 -0.1340
719 55 1 69.0651 34.2374 -0.1340
720 55 1 68.1196 33.4930 -0.1340
721 55 1 68.3667 34.9602 -0.1340
722 55 1 67.5809 34.3416 -0.1340
723 55 2 70.1565 33.8239 -0.1340
724 55 3 68.2655 32.3351 -0.1340
725 55 4 69.4580 34.5467 -0.1340
726 55 5 67.7268 33.1837 -0.1340
727 55 6 68.7595 35.2695 -0.1340
728 55 7 67.1881 34.0323 -0.1340
729 56 1 -67.0455 -8.7146 -0.1340
730 56 1 -67.6264 -9.1112 -0.1340
731 56 1 -68.2073 -9.5078 -0.1340
732 56 1 -67.6933 -7.9461 -0.1340
733 56 1 -68.6872 -8.6246 -0.1340
734 56 1 -68.3412 -7.1775 -0.1340
735 56 1 -69.1670 -7.7414 -0.1340
736 56 2 -66.6326 -8.4327 -0.1340
737 56 3 -68.6202 -9.7897 -0.1340
738 56 4 -67.2804 -7.6641 -0.1340
739 56 5 -69.1001 -8.9065 -0.1340
740 56 6 -67.9282 -6.8956 -0.1340
741 56 7 -69.5800 -8.0233 -0.1340
742 57 1 36.9025 19.3317 -0.1340
743 57 1 36.1997 19.3602 -0.1340
744 57 1 35.4969 19.3887 -0.1340
745 57 1 36.8414 20.3350 -0.1340
746 57 1 35.6390 20.3838 -0.1340
747 57 1 36.7804 21.3383 -0.1340
748 57 1 35.7812 21.3788 -0.1340
749 57 2 37.4021 19.3114 -0.1340
750 57 3 34.9973 19.4090 -0.1340
751 57 4 37.3410 20.3147 -0.1340
752 57 5 35.1394 20.4040 -0.1340
753 57 6 37.2799 21.3180 -0.1340
754 57 7 35.2816 21.3991 -0.1340
755 58 1 -6.2406 -1.1398 -0.1340
756 58 1 -6.7972 -0.7098 -0.1340
757 58 1 -7.3539 -0.2798 -0.1340
758 58 1 -5.7097 -0.2862 -0.1340
759 58 1 -6.6621 0.4494 -0.1340
760 58 1 -5.1789 0.5674 -0.1340
761 58 1 -5.9704 1.1787 -0.1340
762 58 2 -5.8448 -1.4454 -0.1340
763 58 3 -7.7496 0.0258 -0.1340
764 58 4 -5.3140 -0.5918 -0.1340
765 58 5 -7.0578 0.7551 -0.1340
766 58 6 -4.7832 0.2617 -0.1340
767 58 7 -6.3661 1.4843 -0.1340
768 59 1 -17.5377 49.7301 -0.1340
769 59 1 -16.8936 49.4474 -0.1340
770 59 1 -16.2496 49.1646 -0.1340
771 59 1 -17.8466 48.7736 -0.1340
772 59 1 -16.7447 48.2899 -0.1340
773 59 1 -18.1554 47.8171 -0.1340
774 59 1 -17.2398 47.4151 -0.1340
775 59 2 -17.9955 49.9311 -0.1340
776 59 3 -15.7918 48.9636 -0.1340
777 59 4 -18.3044 48.9746 -0.1340
778 59 5 -16.2869 48.0889 -0.1340
779 59 6 -18.6133 48.0181 -0.1340
780 59 7 -16.7820 47.2141 -0.1340
781 60 1 21.4639 -9.6941 -0.1340
782 60 1 20.7605 -9.6954 -0.1340
783 60 1 20.0571 -9.6968 -0.1340
784 60 1 21.3603 -8.6943 -0.1340
785 60 1 20.1569 -8.6966 -0.1340
786 60 1 21.2567 -7.6945 -0.1340
787 60 1 20.2567 -7.6964 -0.1340
788 60 2 21.9639 -9.6932 -0.1340
789 60 3 19.5571 -9.6977 -0.1340
790 60 4 21.8603 -8.6934 -0.1340
791 60 5 19.6569 -8.6975 -0.1340
792 60 6 21.7567 -7.6936 -0.1340
793 60 7 19.7567 -7.6973 -0.1340
794 61 1 -31.1665 -44.9644 -0.1340
795 61 1 -30.4737 -45.0860 -0.1340
796 61 1 -29.7809 -45.2076 -0.1340
797 61 1 -31.2392 -45.9670 -0.1340
798 61 1 -30.0539 -46.1750 -0.1340
799 61 1 -31.3119 -46.9695 -0.1340
800 61 1 -30.3269 -47.1423 -0.1340
801 61 2 -31.6590 -44.8780 -0.1340
802 61 3 -29.2885 -45.2940 -0.1340
803 61 4 -31.7317 -45.8805 -0.1340
804 61 5 -29.5615 -46.2614 -0.1340
805 61 6 -31.8044 -46.8831 -0.1340
806 61 7 -29.8345 -47.2288 -0.1340
807 62 1 48.8884 -3.1859 -0.1340
808 62 1 48.4077 -2.6724 -0.1340
809 62 1 47.9270 -2.1589 -0.1340
810 62 1 49.5489 -2.4282 -0.1340
811 62 1 48.7265 -1.5497 -0.1340
812 62 1 50.2095 -1.6705 -0.1340
813 62 1 49.5260 -0.9405 -0.1340
814 62 2 49.2301 -3.5509 -0.1340
815 62 3 47.5853 -1.7939 -0.1340
816 62 4 49.8907 -2.7932 -0.1340
817 62 5 48.3848 -1.1847 -0.1340
818 62 6 50.5512 -2.0355 -0.1340
819 62 7 49.1843 -0.5755 -0.1340
820 63 1 -9.7374 25.8829 -0.1340
821 63 1 -9.1012 26.1829 -0.1340
822 63 1 -8.4649 26.4828 -0.1340
823 63 1 -9.2190 25.0218 -0.1340
824 63 1 -8.1305 25.5349 -0.1340
825 63 1 -8.7006 24.1606 -0.1340
826 63 1 -7.7961 24.5870 -0.1340
827 63 2 -10.1897 25.6697 -0.1340
828 63 3 -8.0127 26.6960 -0.1340
829 63 4 -9.6713 24.8086 -0.1340
830 63 5 -7.6783 25.7481 -0.1340
831 63 6 -9.1529 23.9474 -0.1340
832 63 7 -7.3438 24.8002 -0.1340
833 64 1 -20.1343 62.0645 -0.1340
834 64 1 -19.6771 61.5299 -0.1340
835 64 1 -19.2200 60.9953 -0.1340
836 64 1 -20.8282 61.3372 -0.1340
837 64 1 -20.0461 60.4227 -0.1340
838 64 1 -21.5221 60.6100 -0.1340
839 64 1 -20.8721 59.8500 -0.1340
840 64 2 -20.4592 62.4445 -0.1340
841 64 3 -18.8950 60.6153 -0.1340
842 64 4 -21.1531 61.7172 -0.1340
843 64 5 -19.7211 60.0427 -0.1340
844 64 6 -21.8470 60.9900 -0.1340
845 64 7 -20.5472 59.4700 -0.1340
846 65 1 5.2100 10.8983 -0.1340
847 65 1 5.2674 11.5993 -0.1340
848 65 1 5.3248 12.3003 -0.1340
849 65 1 6.2149 10.9180 -0.1340
850 65 1 6.3132 12.1174 -0.1340
851 65 1 7.2199 10.9377 -0.1340
852 65 1 7.3015 11.9344 -0.1340
853 65 2 5.1692 10.3999 -0.1340
854 65 3 5.3656 12.7987 -0.1340
855 65 4 6.1741 10.4197 -0.1340
856 65 5 6.3540 12.6157 -0.1340
857 65 6 7.1791 10.4394 -0.1340
858 65 7 7.3423 12.4327 -0.1340
859 66 1 56.8497 40.3702 -0.1340
860 66 1 57.5298 40.1909 -0.1340
861 66 1 58.2100 40.0117 -0.1340
862 66 1 56.6932 39.3773 -0.1340
863 66 1 57.8568 39.0706 -0.1340
864 66 1 56.5367 38.3844 -0.1340
865 66 1 57.5036 38.1295 -0.1340
866 66 2 56.3662 40.4976 -0.1340
867 66 3 58.6935 39.8842 -0.1340
868 66 4 56.2097 39.5047 -0.1340
869 66 5 58.3403 38.9432 -0.1340
870 66 6 56.0532 38.5118 -0.1340
871 66 7 57.9871 38.0021 -0.1340
872 67 1 64.0952 -13.3245 -0.1340
873 67 1 64.4929 -12.7444 -0.1340
874 67 1 64.8906 -12.1642 -0.1340
875 67 1 64.9774 -13.8061 -0.1340
876 67 1 65.6579 -12.8135 -0.1340
877 67 1 65.8597 -14.2877 -0.1340
878 67 1 66.4252 -13.4629 -0.1340
879 67 2 63.8124 -13.7369 -0.1340
880 67 3 65.1733 -11.7518 -0.1340
881 67 4 64.6947 -14.2185 -0.1340
882 67 5 65.9406 -12.4012 -0.1340
883 67 6 65.5770 -14.7000 -0.1340
884 67 7 66.7079 -13.0505 -0.1340
885 68 1 -33.0840 -37.1959 -0.1340
886 68 1 -33.7600 -37.0017 -0.1340
887 68 1 -34.4360 -36.8074 -0.1340
888 68 1 -32.9056 -36.2068 -0.1340
889 68 1 -34.0621 -35.8744 -0.1340
890 68 1 -32.7271 -35.2176 -0.1340
891 68 1 -33.6882 -34.9414 -0.1340
892 68 2 -32.6034 -37.3340 -0.1340
893 68 3 -34.9166 -36.6694 -0.1340
894 68 4 -32.4250 -36.3448 -0.1340
895 68 5 -34.5427 -35.7363 -0.1340